/*--------------------------------*- C++ -*----------------------------------*\
| =========                 |                                                 |
| \\      /  F ield         | OpenFOAM: The Open Source CFD Toolbox           |
|  \\    /   O peration     | Version:  v1812                                 |
|   \\  /    A nd           | Web:      www.OpenFOAM.com                      |
|    \\/     M anipulation  |                                                 |
\*---------------------------------------------------------------------------*/
FoamFile
{
    version     2.0;
    format      ascii;
    class       volScalarField;
    location    "0.00000125";
    object      betaFieldInversion;
}
// * * * * * * * * * * * * * * * * * * * * * * * * * * * * * * * * * * * * * //

dimensions      [0 0 0 0 0 0 0];


internalField   nonuniform List<scalar> 
44064
(
1.499972230523078
1.490435109159087
1.406941458970705
1.104769905403844
0.637502160655646
0.3406006894933674
0.2260760363326149
0.1810127258115971
0.1594614158812246
0.1473749075712872
0.1421734955119185
0.1412367182269862
0.1427605362341176
0.1455709872471435
0.1488840139396139
0.152166558886178
0.1550599352922574
0.1573342478044676
0.1588579242473799
0.1595746148673516
0.1594847939256495
0.1586302162832027
0.1570807971022882
0.1549242586915162
0.152257616404407
0.149180841878976
0.1457920679748229
0.1421844156138152
0.1384439344081116
0.1346484441739348
0.1308671111848912
0.1271605537265166
0.1235813427873283
0.1201748038776208
0.1169800745408319
0.1140314195844329
0.1113598420017802
0.1089950255674951
0.1069675636451858
0.105311191879637
0.1040643683786348
0.1032709278388362
0.102977658290218
0.1032306050802076
0.1040677806249973
0.1055087332449916
0.1075467407805326
0.1101615467551568
0.1133903161569648
0.1175245925072133
0.1237965182237276
0.1363318817655628
0.1612493650213415
0.2001092853597788
0.2464094629998131
0.2876320332324135
0.3168762807704455
0.3522135674205094
0.4182167489286694
0.5320384855964734
0.7186900822495406
0.9481365067279928
1.165310691264762
1.344229964618314
1.444891304408694
1.482472573734948
1.49332337090062
1.497347415296391
1.499813861741838
1.500012881404159
1.499923232113387
1.50017164265857
1.500162377385513
1.500160039428013
1.500172710642638
1.500183370162053
1.500184325104152
1.50018768302841
1.500191122123295
1.500193862041886
1.500195729821636
1.500196484167416
1.500196289747457
1.500195721257302
1.500195437159237
1.500195373090781
1.500195346503661
1.50019532158118
1.500195324030919
1.500195396234311
1.500195542855975
1.500195755342113
1.5001959747036
1.500196119586567
1.500196174969959
1.500196080710356
1.500195968916904
1.500195849472638
1.500195777222234
1.50019576095225
1.500195760338977
1.500195742837011
1.500195693561008
1.500195680147651
1.500195650889141
1.500195609908917
1.500196857005751
1.240469125418048
1.50019603774543
1.500212846613656
1.500364867875455
1.501007823526965
1.502886672811655
1.507467495926653
1.517564557926774
1.536081943315262
1.559502317685246
1.575763059379967
1.571105897272866
1.535245405335135
1.465852448779172
1.372431845782734
1.272222164597822
1.182732987014609
1.111439817519164
1.053189470570377
1.007159998039248
0.9649624334639557
0.9246875674282586
0.8882748234670544
0.8516410745073114
0.8163959382891447
0.7828147927045292
0.7511130092825219
0.7213094016132655
0.6932285761712523
0.6666494017205323
0.6413480619110244
0.6171275637422189
0.5938186481506529
0.5713035382904845
0.5494743965746696
0.5282388013556852
0.5075599876504905
0.4873483617821426
0.4676146433975679
0.4482404534105619
0.4285015671407991
0.4067123230425805
0.3839493188616148
0.3607063852275652
0.336797095562834
0.3126699531585764
0.2894594313686238
0.267708584751759
0.2478147087053995
0.2300109191397348
0.2144535839113837
0.2012865579626631
0.1906746401423317
0.1827598071120968
0.1775453945083164
0.174779042920827
0.1740409715879445
0.1750908839075715
0.1786207472611489
0.1886430129062768
0.2122993277525731
0.2527402270691296
0.3033459909417864
0.3635358786029129
0.4732068848772403
0.6890435229883461
0.9763645029528809
1.25485931525798
1.40989588266611
1.470984680170753
1.493226224362956
1.499528604855523
1.499769967888374
1.499948476199322
1.500169376317568
1.500188402493791
1.500174881243789
1.50018315786095
1.500187920184465
1.500190923218039
1.50019372868159
1.500195653870318
1.50019646858738
1.500196308669071
1.500195741851774
1.500195432330894
1.500195342316477
1.500195309196761
1.500195282438918
1.500195272084674
1.500195340246818
1.500195504981584
1.50019576528057
1.500196070202143
1.500196294694459
1.500196397447854
1.500196317072834
1.500196203340794
1.500196053029569
1.500195928743288
1.500195900829478
1.500195912460154
1.500195879162504
1.500195755375149
1.500195719907577
1.500195650406201
1.500195560436314
1.500205883330002
1.152867571407748
1.500156319614883
1.498441279684326
1.482989019076814
1.419116313038224
1.252981606245234
0.9920780810271173
0.7678672603539186
0.5962052923695575
0.4990384679411354
0.4663850716745659
0.4548510854629112
0.4475346603658013
0.4487850522677871
0.4571774036596651
0.4704202771572298
0.486396177028653
0.5034719665116063
0.5202901300539043
0.5358036383760494
0.5492648480014792
0.5600612448291143
0.5679161480632451
0.5727777256199637
0.5747929728500665
0.5741593061258182
0.5711082466985746
0.5658948712508896
0.5587575140968438
0.5499319059136488
0.5396636078656976
0.5281876767728898
0.5157168004129459
0.5024342352733284
0.4885055144799677
0.4740972211109605
0.4593327271241093
0.4443101251215477
0.4291102945278835
0.41377945812002
0.3983473242448047
0.3828218662890726
0.3672050351914146
0.3514927999680393
0.3356916943139767
0.319806807305015
0.3038810091748879
0.2879504033852331
0.2720671785411178
0.2562925298178935
0.240697794078855
0.2253719578249237
0.2104373911387774
0.1960788311008945
0.1825772782790189
0.1702949742133364
0.1596283640029742
0.1509142181107772
0.1442728859390898
0.1395979558546213
0.1368232303669365
0.1372882552852686
0.1455052749337266
0.1680070379149106
0.2132915030532653
0.2967248333509461
0.4446393878214003
0.6628413180050559
0.9080465444462165
1.174296850316917
1.358823699516077
1.455063567420953
1.493356587446192
1.500114134528113
1.500012661862717
1.50017987096533
1.500188056880552
1.500187012425463
1.500190237159961
1.500192363364127
1.50019422152239
1.500195602009125
1.500196236680687
1.500196158423913
1.500195730439813
1.500195508871259
1.500195459842214
1.500195426633045
1.500195380497677
1.500195350354115
1.500195383525524
1.500195503695866
1.50019572716554
1.500196018069933
1.500196274723512
1.500196436561794
1.50019636280018
1.500196233433876
1.500196074412314
1.50019594311468
1.500195912599789
1.500195926947158
1.500195893491159
1.500195762321834
1.500195723605509
1.50019565022334
1.500195603937377
1.500227575283241
0.2959734432206497
1.500136809027285
1.49757113273104
1.474459473672595
1.379287009354734
1.140868965250951
0.8217917982645285
0.5701910687314589
0.4095716312782833
0.3485335328272695
0.3390097403826238
0.3382746583419506
0.3424759797636702
0.3542631989200124
0.3724031207278808
0.3952295663660782
0.4212375734507253
0.4491166855686651
0.477662156755827
0.5058407587403049
0.5328326267537642
0.5579098289937102
0.5802663093221367
0.5990237117144851
0.612901150139001
0.6209472131809061
0.628439069471439
0.6342206960364798
0.6388064811562927
0.6422359104908705
0.6445618634306787
0.6458410006852634
0.6461289797003426
0.6454776321766799
0.6439333787802712
0.6415364056110688
0.6383202897757704
0.6343118529661977
0.6295347180818106
0.6239230775852669
0.6176802304184883
0.6103177102728082
0.5982854182732598
0.5824401801623471
0.5638522737173407
0.5432303472681062
0.5210466113568984
0.497624751475244
0.4731497558624881
0.4477731256063499
0.4216648429977625
0.3949179133403531
0.3676498486788307
0.3400342260472379
0.3123205527866547
0.2848085819478415
0.2578314736262908
0.2318144302812813
0.2073401706047951
0.1851083124152815
0.1656664279597153
0.1492762196132257
0.136093638112081
0.1277456323703362
0.1299361464175999
0.1485893640613171
0.1888616358594042
0.2616580422004905
0.4042320463894984
0.6635981466654738
0.9277618663328093
1.197005224221457
1.372014842669
1.468919226179613
1.4976018643091
1.500142808931152
1.500132349884782
1.500187737777925
1.500188813783531
1.500191167053275
1.500193773333458
1.500195532903999
1.500196358921916
1.500196285446319
1.500195759762109
1.500195475248
1.500195407273357
1.500195374657624
1.500195334227192
1.500195310333133
1.500195361362939
1.500195509453086
1.500195761961547
1.500196068160115
1.500196317353947
1.500196463687817
1.50019637573652
1.500196236463734
1.500196071277014
1.500195937869326
1.500195907854511
1.500195924277204
1.500195892434485
1.500195763068504
1.50019572164721
1.500195644283271
1.500195752216741
1.500260570123279
0.03063044624206719
1.500145113316083
1.49794142693825
1.478082418343647
1.395994671805267
1.184820772092673
0.8766485149669959
0.6239440478050916
0.4457148481443435
0.3707607339687517
0.3554633846159108
0.3537066994136882
0.3562266402304679
0.3666408470438055
0.3840433110456189
0.4067517746498165
0.4332830064551748
0.4623327192741002
0.4927230264549169
0.5233742742982426
0.5532446906290538
0.5811379309089034
0.6056274995515945
0.6246106692028459
0.63655195917048
0.6481040715117327
0.6580227636090605
0.6668112360648472
0.6744286905654427
0.6809335853140458
0.6863963702357376
0.6908885893853857
0.6944781097629832
0.6972263158121885
0.6991865131355374
0.7004030328860562
0.7009107079367641
0.7007344731454352
0.6998890271055147
0.6983777890248214
0.6961820900104093
0.6932424172471433
0.6894751524018656
0.6848071928851696
0.6791875284337252
0.6725878878556805
0.6649977199954265
0.6562717770312847
0.6457542444597256
0.6325362392465567
0.6124709877158945
0.5870345798278265
0.5578787196601327
0.5261421056626684
0.4925616362478488
0.4576252900806692
0.4216953002686733
0.3851310002533473
0.3483300941963565
0.3119435778096489
0.276644296861579
0.2429514433834424
0.2113729133341336
0.1825886838037731
0.157546514361144
0.1387579658644146
0.1341962834268944
0.1504950044516457
0.1922377653646867
0.2727398866582096
0.4575963135251078
0.7621079521802268
1.037104472072672
1.280933450937781
1.436278780079495
1.492657339910719
1.500115485014824
1.500118441260613
1.500187399472731
1.500191435259753
1.500193395582527
1.500195477758416
1.500196492306866
1.500196441130802
1.500195795669271
1.500195448700587
1.50019536509608
1.500195328212961
1.50019528380099
1.500195260381149
1.500195321978386
1.500195488547165
1.500195776553159
1.500196125898157
1.500196408020764
1.500196573907186
1.500196474136056
1.500196316331626
1.500196126664537
1.500195973489053
1.50019593836033
1.500195954636036
1.500195916945925
1.50019577540813
1.500195722613453
1.500195609790467
1.500196273980188
1.500289634066455
0.6879024619237416
1.500149115785974
1.49811987993388
1.479827377213995
1.404015990024011
1.205431066860243
0.8958602975460552
0.6346465665471501
0.4521533789537907
0.3650520288484622
0.3401117563899075
0.3454320994805753
0.3502479893642447
0.36076862560722
0.3780073129839514
0.4006552615700278
0.4273565714200451
0.4568648314041794
0.4880715180574653
0.5198741609698926
0.551171187224651
0.5806581206204693
0.6067534274200045
0.6270504812782122
0.6400112314892751
0.6531966275026243
0.6651306900530153
0.6761281096020896
0.6861075717569397
0.6951064729578637
0.7031907201025284
0.7104306502960838
0.7168954182380243
0.7226496337561298
0.7277514344822998
0.7322514532458686
0.7361922407191368
0.7396079252608161
0.7425239301055199
0.7449560818407575
0.7469015371815058
0.7483186086508228
0.7491329704375513
0.7492606657457548
0.7486142359528236
0.7471017070571799
0.7446210394423517
0.7410531577045156
0.7362560310572056
0.7300723013691122
0.7223508744981468
0.7129710491519318
0.7009018926261237
0.6852416235952475
0.6611930942661856
0.6298799928782814
0.5932078201710226
0.5526966069061506
0.5095577636293903
0.4648044973033997
0.4192994219475454
0.3739790716145386
0.3296217349159374
0.2869725382064487
0.2467531387197474
0.2096677930664347
0.1765161495424486
0.1520336736283076
0.1476290881615467
0.1697574812526746
0.2245697821310898
0.3492888906227557
0.6525562446377322
0.9340525429172053
1.219599664197542
1.41864694501631
1.491229706019958
1.500081102010394
1.500159517915645
1.500188305907331
1.500193162931727
1.500195367417453
1.500196491064306
1.50019645760487
1.50019581124005
1.500195448544406
1.500195359620101
1.500195319130657
1.500195269502557
1.50019523671811
1.500195295213976
1.500195470239657
1.500195775766965
1.500196149076519
1.50019645123939
1.500196630239311
1.50019652371062
1.500196355765099
1.500196152851393
1.50019598945513
1.500195952154908
1.500195968511775
1.500195928564769
1.500195786282437
1.500195716427637
1.500195515758301
1.500196914465975
1.500337445697813
0.3774274137445737
1.500154045082085
1.498339714063198
1.481981015587845
1.414053762752858
1.233624127138851
0.935746474702837
0.6670242496965111
0.4775114362626583
0.3808965193057855
0.3504046673725021
0.3537200215092764
0.3569829986029426
0.3659918034682179
0.3819442187523591
0.4037123860994961
0.4298566275673315
0.4590895605085288
0.4902285311460465
0.522132524762339
0.5536648897064005
0.5835088877588078
0.6100335437425987
0.6307832590050628
0.6441282496733438
0.6577040830484375
0.6700249484371319
0.6814588509680392
0.6919027238295125
0.7013665114290946
0.7099161588868175
0.7176233132329867
0.7245595142502909
0.7307927942649952
0.7363857992160012
0.7413947402326108
0.7458689585775791
0.7498508908675945
0.7533760411880344
0.7564725880481372
0.7591544174262237
0.7614031755885663
0.763171733043203
0.7644046043469533
0.7650453727839486
0.7650377588673234
0.7643223007199851
0.762833770117605
0.7604997567533439
0.7572346376662188
0.7529356604644606
0.7474853548760274
0.7407494234450662
0.7325753751794093
0.7224032881921786
0.7098319972626578
0.6886608584787087
0.6593655909558209
0.6237748562307165
0.5833427751497197
0.5392949007189799
0.492661070679813
0.4447236038153136
0.3964554480840669
0.3485775221445307
0.3018570790552758
0.2573065946507844
0.2158116367872976
0.1796708999130811
0.1600989525752035
0.1679283178966527
0.2095243074911322
0.3104786299556783
0.6029094344384635
0.8975299860227409
1.2097746274423
1.427316040661915
1.494481028212921
1.50014397429723
1.500186008030995
1.500192599469379
1.500195321099953
1.50019654907845
1.500196552292603
1.500195835378191
1.500195444542394
1.500195350769613
1.500195308966936
1.500195257801297
1.500195223169776
1.500195281280775
1.500195456949306
1.500195765169196
1.500196142666637
1.500196447490907
1.500196629499707
1.50019652224459
1.500196354596023
1.500196152060382
1.500195988156049
1.50019595033466
1.500195966049918
1.500195923154878
1.500195796872234
1.500195703281567
1.500195363367184
1.500196835272098
1.500371437966707
0.4708663495572449
1.500159664408365
1.498590334427301
1.484437466571259
1.425550646508491
1.26682229225452
0.9877327046975795
0.714662599962537
0.5201421723885565
0.4106955355159405
0.3708982177460325
0.3711276071502911
0.3718063843207365
0.3783765740823711
0.3926966561146808
0.4135017012435793
0.439189097217967
0.4683236407018205
0.4995759458642839
0.5317643704968745
0.5636105246253214
0.5937857186298117
0.6205456569636346
0.6412409442534287
0.6543019551918525
0.66799096027467
0.6806314237628455
0.6924024282291734
0.7031824558889791
0.7129646617315061
0.7218174683108467
0.7298152657141656
0.7370321051378409
0.743538253425974
0.749398362528903
0.7546706792551332
0.7594067862462476
0.7636516002097264
0.767443601412373
0.7708146926137609
0.7737838993781885
0.7763398553515278
0.7784430718385984
0.7800463582546829
0.7811036410757826
0.7815706966383054
0.7814012245747775
0.7805438546406744
0.7789408610699563
0.7765263572158613
0.7732245567757872
0.7689481373019275
0.7635963004071762
0.7570528866504442
0.7491844327341165
0.7398308132925098
0.7283970102159611
0.7133995571327684
0.6903574947049786
0.6596948002004266
0.6230960926946837
0.5818117112991812
0.5369126698926594
0.4896781203016817
0.4411271192475253
0.3919346489702066
0.3426777895680491
0.2942436986605588
0.247804679915316
0.2051230067289356
0.1767929741936934
0.1769141642323074
0.2129786716631213
0.3122165192941727
0.6122777013741045
0.9150486685949518
1.255884465810007
1.454674931125751
1.498175964281375
1.500183817173681
1.500192100392552
1.500195206500786
1.500196565118415
1.500196589397736
1.500195854746849
1.500195439401993
1.50019533872526
1.500195293687423
1.500195238964418
1.500195200535991
1.500195258701387
1.500195438470167
1.500195755130268
1.500196143638129
1.500196456915498
1.500196644365111
1.500196530866589
1.500196357970583
1.50019615227303
1.500195986882539
1.500195948310938
1.500195963101416
1.500195909159416
1.500195812150589
1.500195689027212
1.500195302612261
1.500194909860613
1.500423252260493
0.5423701952864538
1.500163366812362
1.498755467706506
1.486056690573794
1.43315805343695
1.289394939620767
1.027008347786772
0.7510109078629827
0.5480293005063891
0.4307398466207836
0.3850609889874976
0.381035934325302
0.3835822386329533
0.3901697434960333
0.4040643330874176
0.4244235014609171
0.4497926275057372
0.4786436059521881
0.5096185326069276
0.5414666994794806
0.5729633752013864
0.6027914357356896
0.6292726221702155
0.649759688363161
0.6627068401413221
0.6763225517419302
0.6888823413964892
0.7005769182017583
0.7112821782345424
0.7209839482220961
0.7297469553670621
0.7376427912005328
0.7447431182868505
0.7511163338121842
0.7568257811875224
0.7619289364675631
0.7664771263247747
0.7705155613859211
0.7740835805177786
0.7772146227783961
0.7799302132880715
0.7822226552962143
0.7840568406889054
0.7853904186602745
0.7861831620075145
0.7863992982009298
0.7860050985735981
0.7849657958260988
0.7832438552847028
0.7807976035493742
0.7775801741889845
0.7735385899955572
0.7686131038588371
0.7627365611103617
0.7558339755548406
0.7478209833797391
0.7385936148622473
0.7277074765406695
0.7138509053554138
0.6927785229238893
0.6647098629077534
0.6311929406597632
0.5933173489963168
0.5519371081737985
0.507985133273184
0.4621358802663942
0.4147532691262799
0.3662273478113889
0.3172361843463139
0.268919338444645
0.2231784977683612
0.1915020731984637
0.1903357499837566
0.226956685018522
0.3475266181513416
0.6657361987672837
0.9975250082215504
1.342809680178697
1.482239705267412
1.499846709322739
1.500191380425057
1.500195020924215
1.500196618160198
1.500196681800632
1.500195878166722
1.500195434582655
1.500195327560776
1.500195279220447
1.500195220644765
1.500195177974709
1.500195235071441
1.500195417037452
1.500195740777588
1.500196141107161
1.500196465493564
1.500196663103045
1.500196546058835
1.500196368430645
1.500196159214621
1.500195990787721
1.500195950130254
1.500195967038617
1.500195895214273
1.500195839987658
1.500195670931326
1.500195244386264
1.500192870094117
1.500461256648391
0.6287418500201509
1.500167507205904
1.498940142634892
1.487868060823407
1.44168842229387
1.315103020612159
1.074761614240614
0.8019102143461758
0.5945382683499858
0.4669875318571038
0.412631390768178
0.4047065916244827
0.4047413013730125
0.4090241081741574
0.4211741850629251
0.4404183949244642
0.465163813341926
0.4937177541427678
0.5245966824306165
0.556426264771238
0.5878847155029115
0.617568451063959
0.6436939913671355
0.6635030279510526
0.6767803217400352
0.6903447406776649
0.7029167676284205
0.7145553049698474
0.725145800858213
0.7346819279930847
0.7432317906801559
0.7508726059549897
0.7576803479030387
0.7637266665070417
0.7690773702582234
0.773791812755128
0.7779227938709812
0.7815168234325068
0.7846145863499913
0.7872510679027275
0.7894504505519518
0.7912101969889822
0.7925015565016647
0.7932886008572342
0.7935378692255655
0.7932204872136747
0.7923101588572947
0.7907806431935849
0.7886047357588603
0.7857533455540664
0.782194695604859
0.7778935860145704
0.7728108017098769
0.7669024393995176
0.7601183795403115
0.752401455579951
0.743688141678332
0.7339024622966936
0.7226659947491991
0.7084527813911485
0.6875283289540872
0.660340806269051
0.6284344558207261
0.5928225179166882
0.5542638308463791
0.513374500734596
0.4704151571365334
0.4253619574650606
0.3783431979880312
0.3299183417170461
0.281074434828336
0.2343120796577598
0.2039358154257216
0.2076986191840983
0.249925897169155
0.4276944904358823
0.7491217814121363
1.146434656115568
1.428996656175362
1.496411222826725
1.500179211858489
1.500194964961042
1.500196647467725
1.500196719989066
1.50019589725415
1.500195430636446
1.500195316968977
1.500195265154728
1.500195202719769
1.500195155591649
1.500195211020026
1.500195394295907
1.5001957230729
1.500196132755786
1.500196467598743
1.500196675691102
1.500196555546429
1.500196373457055
1.500196162190551
1.500195993775592
1.500195952024138
1.500195975104509
1.500195875535443
1.500195881876176
1.500195665847909
1.500195051901819
1.500189772358589
1.50050449384816
0.7425778768250463
1.500170779955377
1.499086120735819
1.489300222895373
1.448446163784579
1.335737170828172
1.115134558128734
0.8462337202563809
0.6337982338050745
0.4984706017749523
0.4370582784451881
0.4247015330987432
0.42401153244268
0.4265773854436218
0.4371531719089544
0.4551327629657
0.4791203008261884
0.5070907291322161
0.537435206143937
0.5687573248614683
0.59974003569854
0.6290131260517648
0.6548319297226227
0.6744670888296859
0.6865915673517676
0.6997802889538327
0.7120783859446821
0.7234713880839845
0.7338401230906116
0.7431622596430008
0.7514937321054629
0.7589036277746106
0.7654619151481065
0.7712358270325865
0.7762879643994181
0.7806753799597138
0.7844493639962392
0.7876555060798586
0.7903338776324318
0.7925192119931633
0.7942375228216247
0.7954938218954436
0.7962692987912283
0.7965364534045423
0.7962693949034257
0.7954449420920026
0.7940416335879997
0.7920387035574448
0.7894153702293599
0.7861498984736243
0.7822189232563421
0.7775971337493173
0.7722574910280519
0.7661712085834723
0.7593076119787515
0.7516342649447458
0.7431164302946853
0.7337159729124374
0.7233771796890017
0.7114557329336541
0.6956729627249373
0.6738171449213335
0.6466696385239511
0.6157634129192253
0.5820260426075615
0.5461078984571298
0.508241206608206
0.468271942074723
0.425762742108567
0.3807041036537177
0.3335623072222874
0.2851964748952077
0.2395590052929979
0.2149983334396103
0.2271838704474165
0.2880286567562763
0.5474003992621266
0.9089341896680311
1.316564317449308
1.480979515047031
1.499855709526683
1.500195300281071
1.500196673615226
1.500196786310721
1.500195916764916
1.500195428689342
1.500195311806063
1.500195259046349
1.500195194456141
1.500195143549615
1.500195196369337
1.500195378474859
1.500195709318252
1.500196125084894
1.500196466861405
1.500196682803276
1.500196561745321
1.500196376533389
1.500196164196325
1.500195996830069
1.500195952248831
1.5001959889034
1.500195852010742
1.500195940734536
1.500195682697163
1.500194903086957
1.500188748099744
1.500533052452797
0.8545007708177789
1.50017378087837
1.499219977443563
1.49061370384953
1.45465361322361
1.354896496696514
1.154506583828105
0.893956321625799
0.6794408059044165
0.5357702406662421
0.4649276676834916
0.4454798707244416
0.4461339044749015
0.4479163456768761
0.4572187746448774
0.4740478611680745
0.4968906258509677
0.5239962512069012
0.5536300509248229
0.5842855734050089
0.6145629913562294
0.6430392490741602
0.6678964024790396
0.6864186806285799
0.6994101717219595
0.7124468646950041
0.7245218972037744
0.7356254000506175
0.7456735161582498
0.7546508742505036
0.7626190649252621
0.7696508895450284
0.7758183339027005
0.7811895477666139
0.7858272974595167
0.7897883088706816
0.7931231880245098
0.7958765761396588
0.798087466966851
0.7997897279733208
0.8010101580126324
0.8017595391222773
0.8020279462026824
0.8017948514038092
0.8010393663517222
0.7997423135333096
0.7978860291382343
0.7954536428431382
0.7924280541995554
0.7887912726190421
0.7845240966174359
0.7796059892935695
0.7740144292639479
0.7677237727839601
0.7607068637809017
0.7529367848124157
0.7443868048000111
0.735031103139131
0.7248392242996238
0.7137507296956057
0.7007826603861045
0.68278961500102
0.6592717549542434
0.631568877578313
0.6011041143206698
0.5687476292032928
0.534926398230438
0.4994817186500537
0.4619061039023891
0.4214468221135343
0.3781037507609296
0.3322468071829493
0.2845735006268199
0.2427864235317599
0.2291718802112166
0.2508343124331864
0.3808195071717971
0.6930960706908225
1.141187481544316
1.439778730902369
1.497860249727796
1.500190466747896
1.500196749015655
1.500196845103002
1.50019593227977
1.500195429366854
1.500195311526437
1.500195260539764
1.500195195859491
1.500195142012644
1.500195191874738
1.500195371755654
1.500195702228605
1.500196120142793
1.500196465399838
1.500196686323376
1.50019656574889
1.500196378070906
1.500196163250186
1.500195998145034
1.500195949654457
1.500196010126132
1.500195821475129
1.500196012550589
1.500195730590444
1.500194352004939
1.500190381952947
1.500573433285258
0.9857883521669645
1.500176155123944
1.499325882367185
1.491653067846453
1.459570803507953
1.370169902878983
1.186661716058363
0.9329798022357119
0.7124218448433148
0.5624898389203671
0.4849928260590786
0.4593904761445853
0.4620727172782422
0.4636550187905647
0.471767971203737
0.4873772009928443
0.5091251500180669
0.535253837753026
0.564065242267859
0.5939568477519163
0.6235499912780944
0.6514028131343331
0.6757417348245971
0.6938605685836178
0.706229087726162
0.7189521289246417
0.7307655033785638
0.7416335996766161
0.7514845456984485
0.7602850428033118
0.7680878722637542
0.7749562178814938
0.7809549374692318
0.7861468566162705
0.7905907439276872
0.7943403404761545
0.7974439625132489
0.7999444053361883
0.8018791620095106
0.8032806678038245
0.8041757993892434
0.8045820935470941
0.8045028240901037
0.8039299194331652
0.8028503609373037
0.8012491353622259
0.7991104971405945
0.7964177560479273
0.7931528044810897
0.7892959506823919
0.7848255443776573
0.7797179676878514
0.7739483721719396
0.7674939239828766
0.7603335362534441
0.7524462822070696
0.743813414088514
0.7344197331600671
0.724255104352294
0.7133155801254807
0.7013535487807772
0.6868097838449039
0.6662336439070882
0.6409010252096663
0.6126383616121569
0.5826991952734826
0.5517743248747377
0.5199283659521415
0.4867037968457887
0.4511637294090948
0.4126234388196706
0.3710144493158159
0.3264259937124752
0.2802888269645872
0.246855011314108
0.2466370105042989
0.2910354810991834
0.5293968852756155
0.9354874807568159
1.360941259270872
1.490172515019101
1.500114195479219
1.500196663345888
1.500196895564518
1.500195950345731
1.500195429429585
1.500195313256386
1.500195266250232
1.500195203793513
1.500195149135445
1.500195197392069
1.500195375248274
1.500195705327298
1.500196123750673
1.500196467993568
1.500196687092006
1.500196567482943
1.500196378863262
1.500196160945108
1.500195997094753
1.500195938612441
1.500196036946758
1.500195788503018
1.500196084101378
1.500195792745302
1.500193654672805
1.500189076464837
1.500568701379088
1.109412225439901
1.500178424282082
1.499427102094603
1.492646616607164
1.464277790711172
1.384927583486667
1.2191686230214
0.977843334304195
0.7557445549368009
0.6006183083890716
0.5154603467477795
0.4840008703562229
0.4861012184797143
0.4861225184314406
0.4922027458761558
0.5061745743724091
0.5266304285298233
0.5517422626440182
0.5796944324798144
0.6088520664571281
0.6377316557184126
0.6648667282456703
0.6884806406301923
0.7058833483843148
0.7181136343657161
0.730536979771877
0.7420491811663258
0.7525989549704593
0.7621472536327271
0.7706504984287861
0.7781597342449386
0.7847350757204411
0.7904380738558473
0.7953284402339982
0.7994621521972033
0.8028904038318331
0.8056590288077998
0.807808373511513
0.8093734038343863
0.8103838575052897
0.8108642527167201
0.8108331125109922
0.8103009095723648
0.8092692242344308
0.8077336255421284
0.8056865735640709
0.8031183822091171
0.8000157715266315
0.7963605779956168
0.7921309958844156
0.787303581030656
0.7818543312286421
0.7757590376198504
0.7689926330587268
0.7615310627485626
0.753353795193701
0.7444444733592934
0.7347932070822266
0.7243982358709582
0.7132686510399154
0.7014037395399794
0.6881272905065231
0.6704214887196139
0.6477419580384357
0.6213466098174522
0.5930663188614221
0.5640124857122316
0.5346092959256299
0.5045689361324966
0.4731472932098303
0.439103920293669
0.4020927387435491
0.3619057683078378
0.3182877406879532
0.2763621507700837
0.2572842859696775
0.2692848525759683
0.4040244986640939
0.7290620372880408
1.235881123518642
1.470869041589456
1.499651753036825
1.500196396271046
1.500196966467111
1.500195965143307
1.500195430743972
1.500195317022991
1.50019527546435
1.500195216390483
1.500195161583393
1.500195208752798
1.500195385285505
1.500195714825653
1.500196132491265
1.500196474141109
1.500196689856577
1.50019657138622
1.500196382459312
1.500196158711339
1.500195996817752
1.500195922750628
1.500196073404347
1.500195761476284
1.500196146867946
1.500195851250013
1.500192231450515
1.500186140067485
1.500567670771704
1.303538039167789
1.500180226939773
1.49950751420524
1.493436020536278
1.468021006795373
1.396727360664202
1.245786871057614
1.016576937205359
0.7925465368008321
0.6313044883367628
0.5389528716214846
0.5023729714796906
0.5042440538161812
0.5026201659792745
0.5065710798552444
0.5187998664061205
0.5378605852063403
0.5618714693736946
0.5889563592908496
0.6174051857811382
0.6456733715422313
0.6722796447239673
0.6954439310550066
0.7124485443737483
0.7240870120456412
0.7362557131845163
0.7475677960028748
0.757950398369392
0.7673692066855454
0.7757714538179266
0.7831978722724193
0.7897003409571791
0.7953344435051981
0.8001551263276887
0.8042142119201442
0.8075591735798325
0.8102326321186506
0.8122722365115962
0.8137107311726441
0.8145761797262253
0.8148922879026127
0.8146783087506787
0.8139484366006391
0.8127112936396103
0.8109701009171121
0.8087230218173909
0.8059621384204159
0.8026717778004485
0.7988279303319437
0.7944009227506745
0.7893588157116369
0.7836689960599282
0.7773001079680082
0.7702247023409814
0.762420777023711
0.7538737329776519
0.7445793170874405
0.734545893056465
0.7237962930544684
0.7123618911234704