/*--------------------------------*- C++ -*----------------------------------*\
| =========                 |                                                 |
| \\      /  F ield         | OpenFOAM: The Open Source CFD Toolbox           |
|  \\    /   O peration     | Version:  v1812                                 |
|   \\  /    A nd           | Web:      www.OpenFOAM.com                      |
|    \\/     M anipulation  |                                                 |
\*---------------------------------------------------------------------------*/
FoamFile
{
    version     2.0;
    format      ascii;
    class       volScalarField;
    location    "0.00000125";
    object      betaFieldInversion;
}
// * * * * * * * * * * * * * * * * * * * * * * * * * * * * * * * * * * * * * //

dimensions      [0 0 0 0 0 0 0];


internalField   nonuniform List<scalar> 
44064
(
1.494152016017583
1.474656092676273
1.305933713677321
0.7977239081724347
0.3559483947967217
0.1961090989839062
0.1433174717617688
0.1240496161256299
0.1150065593091441
0.1103146771540134
0.1091143326485217
0.1101058390364468
0.1123531073275965
0.1152427271891784
0.118358049984138
0.1214180149717815
0.1242305756195572
0.1266656715303326
0.128638439633375
0.1300987413514065
0.1310247753885569
0.1314190020350656
0.1313047707962041
0.1307223971585751
0.1297245403327845
0.1283720534089924
0.1267319278132729
0.1248766280944189
0.1228823224339826
0.1208186380461577
0.1187418128903749
0.116699310706016
0.1147321588187355
0.1128718799981399
0.1111379154680811
0.1095397636278319
0.1080792423746815
0.1067554570727511
0.1055757934090168
0.1045640743238303
0.103752129584928
0.1031721926455732
0.1028568335713402
0.1028375278327229
0.1031455088555183
0.1038103113401121
0.1048552846503887
0.1062896692132941
0.1081007193540132
0.1102578436326089
0.1127620786046158
0.1159728282101588
0.1220412771017665
0.1358572433299369
0.1623399856530795
0.2007910534502656
0.2400252678859902
0.2675750560697964
0.2880006948438792
0.3240546168572581
0.3950362624883752
0.5183748319674663
0.703512968279983
0.9573734079093448
1.251752018959745
1.407999053552333
1.463083089643305
1.486587673449029
1.493434152422773
1.49450134198045
1.49445739060158
1.494574481607559
1.494584806102225
1.494573786714934
1.494587798275435
1.494594813911943
1.494595953737577
1.494599771846835
1.494603275271642
1.494606272698553
1.494608739440443
1.49461034418837
1.494610749303264
1.494610043634435
1.494609405039279
1.494609751716971
1.494610278007415
1.494610415225121
1.494610211891689
1.494609868299647
1.494609564138514
1.494609290295595
1.494609041821378
1.494608816597493
1.49460866737755
1.494608668611924
1.494608776054722
1.494608893558016
1.494608935113495
1.494608942423309
1.494608941800986
1.494608921294685
1.494608884693755
1.494608818150009
1.494609024834838
1.494608771336793
1.494610244681748
1.823894262164087
1.494609258090559
1.494626045732366
1.494777552368889
1.495411771095331
1.497196910603321
1.501133671648929
1.508513295169576
1.521137734571093
1.54083760341754
1.567760821160797
1.600691423797557
1.643167421424894
1.689268002004976
1.74010671089007
1.791475086895753
1.834799845286082
1.86270900607304
1.871312953517854
1.853243319511277
1.790268831455981
1.653544894310972
1.418920126006899
1.128898258281948
0.8968923636198617
0.7592379336250502
0.6761717314030307
0.6204162710588733
0.5850381571436265
0.5600395950129361
0.5398755031626129
0.5222230096171077
0.5060090772536157
0.4905664119055887
0.4754953971480727
0.4605860422217705
0.4457375120285408
0.4309326432493479
0.4162143540909967
0.4016372084789552
0.3872368188074544
0.3730661564390745
0.3591522313589182
0.3455047291192153
0.3321654802116755
0.319181919202809
0.3066132984782776
0.2945148855665468
0.2829413474651471
0.271948651666439
0.2614827099659038
0.2508386723092642
0.2397657122228081
0.227836891340267
0.2167086612191143
0.2075909235272668
0.2016150952293544
0.1993069040815038
0.2005923494857396
0.2042158644986239
0.2069723310454002
0.2104720486292716
0.2196777224359227
0.2451755462752359
0.3041252090441747
0.4338680541760398
0.6838785687049954
1.043336354704442
1.35876423283642
1.463313365547994
1.488303297561572
1.493895259331162
1.494395138107386
1.49451560277004
1.494585037932678
1.49459361279386
1.494588001397652
1.49459691161645
1.494600262527431
1.494603492116121
1.494606378498371
1.494608625625897
1.494610134864971
1.494610559051095
1.494609921073359
1.49460930442045
1.494609617499165
1.494610118824448
1.494610277534028
1.494610124404972
1.494609833114953
1.494609570228254
1.494609341103498
1.494609084098749
1.494608793381983
1.494608567487662
1.494608560766901
1.494608712833167
1.494608909064107
1.494609001045732
1.49460902253178
1.494609031265077
1.494608991986207
1.494608904621975
1.494608736900098
1.494609250194284
1.494608592928093
1.49461768811677
0.381133250002919
1.494565243448986
1.49266290396414
1.475526695545253
1.404631956598829
1.217363981670492
0.9033883411365752
0.6247759748893061
0.4584660035324153
0.356785145088906
0.3148072717640694
0.2988294997562457
0.2898156528766556
0.2870718331486055
0.2894941650077396
0.2949556208845298
0.3017783306217289
0.3087812229182058
0.3151990036747901
0.3206141898354473
0.3248781300328593
0.3278912067556778
0.3294630955505257
0.3295003209369908
0.3281176346539277
0.3255224488662982
0.3219050228846166
0.3174164191941778
0.3121874157250158
0.3063355646816172
0.2999664308177452
0.2931797962088044
0.2860703516428518
0.2787270049899916
0.271231814792197
0.2636588070707355
0.2560726259855701
0.2485291379120885
0.2410787332287882
0.233767615456569
0.2266358840836596
0.219713973455596
0.2130264701362828
0.2065952169281149
0.2004428005427759
0.1945979605169949
0.1890996166093007
0.183998704895349
0.179355487882128
0.1752275221677337
0.1716418560243385
0.1685459803285499
0.1657549301825463
0.1630294602884378
0.1602313286782662
0.1573823552409106
0.1546680489682706
0.1523923378694938
0.1508541670848735
0.1501713159335544
0.1502434117811995
0.1514952950414364
0.1565664976818971
0.1707185237071432
0.2014994261215231
0.2598822112826938
0.3614426768820913
0.5386203547585601
0.7996447744827042
1.141490002886194
1.38069078740981
1.463403257716403
1.490718244733826
1.494542494708696
1.494492039092399
1.494599821300709
1.494601197533262
1.494601097088954
1.494603787252282
1.494605516195044
1.494607150322256
1.494608599538156
1.494609636380154
1.494610004058439
1.494609614157445
1.494609158824592
1.494609376203389
1.494609788218297
1.494609964785139
1.494609894304989
1.494609688495018
1.494609481113396
1.494609268634998
1.494609056346581
1.49460882278527
1.494608612601369
1.494608579567545
1.494608717924632
1.494608920194513
1.494609017882784
1.494609040554072
1.49460905193061
1.494609014048453
1.494608916658108
1.494608715215417
1.494609296944939
1.494608535038618
1.494637639537849
2.116262223555975
1.494533377124042
1.49124196860815
1.461621424439178
1.3404492633332
1.047410817650667
0.6912349319597421
0.452542860735908
0.3080097680746801
0.2556453261100294
0.2445605821790439
0.2462006588281782
0.2497931538001046
0.2578532688399146
0.2701604243215495
0.2857734643403246
0.3037325599289933
0.3231446284208275
0.3431823002858262
0.3630602935660469
0.3819781361185919
0.399179977595999
0.4140957878258122
0.426315664224691
0.4354252028445731
0.4411421183303756
0.4452273028048869
0.447503174659817
0.4480904500939542
0.4474214070987715
0.4456834647984428
0.443006790825106
0.4394573107586282
0.4350213627891489
0.42958650414225
0.4234838008015602
0.4163976191172667
0.4077418126804566
0.3982029956198931
0.3870555888487928
0.3746633799700257
0.3614543468275988
0.3477374139762928
0.3337337365342039
0.3195975905273414
0.305433880747083
0.2913084006953778
0.2772545220553309
0.2632836806814585
0.2494120904591639
0.235700032118584
0.2222805840495665
0.2093894319222254
0.1972585946020491
0.1860041820452103
0.1756673738120398
0.1662729305924352
0.1578619969418302
0.1504924192367467
0.1441962771814256
0.138887505481651
0.1343665776576358
0.1306517133293743
0.1293755464133405
0.1345102236091977
0.1505433437602824
0.1828172281660749
0.2436584545243011
0.3689830066573273
0.6078241212309338
0.9193500628849343
1.247155047113804
1.408947662059469
1.475217856646817
1.493166682438832
1.494534776872082
1.494559321751589
1.494601235359047
1.494600711615681
1.494603902529608
1.494606495903401
1.494608389820252
1.494609888992469
1.494610466522975
1.494609926686976
1.494609257449318
1.494609543983433
1.494610119034117
1.494610366992977
1.494610270819555
1.494609984576758
1.494609702462727
1.494609427480832
1.494609140551615
1.494608832680508
1.494608578300824
1.494608549720504
1.494608713091052
1.494608937448696
1.494609043128118
1.494609068089599
1.494609080705592
1.494609040278521
1.494608930468072
1.494608687483641
1.494609315799844
1.494608558270522
1.49466630226113
1.068097152714587
1.494513180876986
1.490341316039064
1.452815642070268
1.30076454742464
0.9607493844615534
0.6160768779139904
0.3836123580789253
0.267509062252514
0.2294395064634362
0.2226840504533944
0.2243738436716107
0.2284169525979083
0.2366692889190675
0.2489137078343337
0.2644049630508935
0.2823857378364337
0.3021328382343969
0.3229493580277438
0.3441604169439247
0.3651137921845469
0.3851614735126777
0.4035871545955182
0.4194436345491263
0.4316094076966882
0.4404606959283199
0.4477021195870352
0.4535940395279989
0.4584406190225476
0.462310482603213
0.4652383191078642
0.4672651956589726
0.4684344546051766
0.4687889375437087
0.4683692516009214
0.4672125778469657
0.4653526512455853
0.4628205832345064
0.4596454705922439
0.4558550218775958
0.4514711099996727
0.4463893701237095
0.4402280766936975
0.4335925952455448
0.4249729970311464
0.4138945367324011
0.4002899748090502
0.385056961845891
0.3688463605784614
0.3521002818996076
0.3351076430713361
0.3180484174673557
0.3010293178765089
0.2841103984198464
0.2673251408794521
0.2507083443173481
0.2343326810787745
0.2182970308446923
0.2027292453627265
0.1878165944705858
0.1738511515018224
0.1611163330338793
0.1497715883401375
0.1398737220259095
0.1318604001015526
0.1279348671215509
0.132151525684894
0.1488983001050872
0.1848182626591579
0.2597896527248683
0.4399948696738942
0.7276530789368197
1.083149293366702
1.338159241732091
1.449570445489506
1.489037188354492
1.494529005953364
1.494527955778801
1.494602341567254
1.49460219441477
1.494604793794788
1.494608183845443
1.494610150786291
1.49461096340196
1.494610298601887
1.494609342501016
1.494609678171122
1.494610404479505
1.494610713913974
1.494610585401145
1.494610223454923
1.494609875429036
1.494609544926758
1.494609200251028
1.494608827600757
1.494608519663774
1.494608483635055
1.494608679488918
1.494608948996609
1.494609074629026
1.494609104625137
1.494609119742927
1.494609071069341
1.494608943416158
1.494608637188752
1.494609414840578
1.494608592954356
1.494695201257017
2.848324727591999
1.494530307059172
1.491104869797928
1.460270861227219
1.334224773499553
1.033931343497472
0.6832051666641232
0.4451492674452546
0.3069258229123646
0.2553242275138088
0.2433243119771117
0.2444692595946207
0.2474834878318188
0.2549674986327994
0.2670447289964178
0.2829325650015186
0.3017920516705224
0.3228167210257351
0.3452199375237187
0.3682221803259119
0.3910302795458169
0.4127607130851961
0.4322457489203005
0.4478048148964869
0.4594188428905235
0.4692403300513608
0.4779497987325921
0.485693039745282
0.4924783287296212
0.4983242611557351
0.5032688380559296
0.5073548624549308
0.5106258226891737
0.5131232994587539
0.5148853880581469
0.5159462164428631
0.5163341681783723
0.5160712288997431
0.5151740425984661
0.5136531813243803
0.51150784406022
0.5087161293007721
0.5052412422155285
0.501045761536521
0.4960977216412664
0.4903758492547385
0.4838738065949164
0.4765601670606897
0.4680494070257994
0.4579765114756036
0.4453686770822758
0.4293595178764056
0.4101088237546424
0.3890711537650898
0.3672676866342545
0.3453263199229294
0.3235700370314644
0.302129176389017
0.2810502350978242
0.2603791444705421
0.2402322278484247
0.2207801240294848
0.2021837674766918
0.1845704703537031
0.1680651877770724
0.1529518232738768
0.1407451723837139
0.1349822077867545
0.1404127651756864
0.1623344485933098
0.2127151176000919
0.3455930264351573
0.6059559906675753
0.9467601211776812
1.274646399894452
1.429786123396186
1.486309162984145
1.494489652182408
1.494550946460657
1.494602476154106
1.49460598901737
1.494607966889848
1.494610079565141
1.49461096678504
1.494610278760796
1.494609322231743
1.49460967052855
1.494610443332098
1.494610788241292
1.494610672707205
1.494610301432316
1.494609938780123
1.494609591621814
1.494609227866425
1.494608829500076
1.494608495766621
1.494608453975135
1.494608663521163
1.494608954039466
1.494609089194584
1.494609122077202
1.494609140099131
1.494609087536434
1.494608945911362
1.494608627950091
1.494609529370955
1.494608606931665
1.49474797350416
1.375422030602399
1.494532782204782
1.491215200029817
1.461348147648727
1.339167360116482
1.047192995721431
0.7021323924382541
0.4612030146414505
0.3173418545673401
0.2614190362726981
0.2473332342016031
0.2476707968984027
0.2499651887649658
0.2568867538686622
0.2686764910013894
0.2845359534998632
0.3036119477655703
0.3250971805853802
0.3482092353970036
0.3721635520619642
0.3961414303988773
0.4192144130958313
0.4401689739250149
0.4571918138223682
0.4699830527199969
0.4812529089670567
0.4913376870364487
0.5005489524670766
0.5088729497387271
0.5163068109382671
0.5228827197743254
0.528641555724499
0.5336275475395957
0.5378849201915183
0.5414557019144334
0.5443780330321182
0.5466861720341711
0.548410033776076
0.5495739961409228
0.5501967293799043
0.5502866492916186
0.5498317605254462
0.5488027970327236
0.5471662404135542
0.5448885525119822
0.541935574628451
0.5382706122408518
0.5338524397704157
0.5286335124478543
0.5225639860319675
0.5155362377745477
0.5069598124823647
0.4963381429988565
0.4825478829765255
0.4647234260890015
0.4429904136592652
0.4188290449116252
0.393495400053435
0.3678388881244746
0.3423453129025543
0.3172380702672403
0.2926011681725467
0.2684836831864358
0.2449901201592974
0.2223118648792524
0.2006457018988991
0.1801393487421138
0.1613973465638926
0.147932461409974
0.1446357484624634
0.1576666978138641
0.1971093386211085
0.3098528995711729
0.5471055554192142
0.878878000465919
1.247072969077841
1.428616949845838
1.487787352107871
1.494538761165643
1.494587272384108
1.49460355557648
1.494607912438345
1.4946100937856
1.494611116037288
1.494610436328504
1.49460931935596
1.494609645258627
1.494610433151669
1.494610785276482
1.494610670599017
1.49461029697344
1.494609934729544
1.494609589126467
1.494609228711409
1.494608834696268
1.494608503260591
1.494608459256825
1.494608664764851
1.494608952972079
1.494609087523779
1.494609120645334
1.494609140201593
1.494609091242509
1.49460894913239
1.494608653620538
1.494609611947822
1.494608543394191
1.494822047980668
1.420548999308226
1.494543495223915
1.491692899992498
1.46601818408649
1.360430096256067
1.098039250074305
0.7525119392616835
0.5056009110805818
0.3539152361917265
0.2867103387704336
0.2667162260025757
0.2664428384394424
0.2682082393739615
0.2742366765043092
0.2854400291234966
0.3010625052677806
0.3201573252589601
0.341812158389435
0.3651493305244101
0.389308527479136
0.4134174405323565
0.436496899043801
0.4572285032847125
0.4736967891092538
0.4860885254032309
0.4974214137897865
0.5076116452748611
0.5170429543881939
0.5256364490042953
0.5333818171988256
0.5403103173752248
0.5464615222825043
0.5518780850515826
0.5566027593402577
0.5606765093392153
0.5641373366011719
0.5670195801370467
0.5693535174799877
0.5711651811347185
0.5724760472005899
0.5732989506757983
0.5736278136860296
0.5734393724332169
0.5727065809006807
0.5714044922021757
0.5695104835062181
0.567002473276186
0.5638572090776091
0.5600494338192979
0.5555510736467087
0.5503312693782774
0.5443560901842881
0.5375606870333365
0.5296304078346108
0.5201640120138362
0.5083145452249801
0.4927466594346289
0.4721111426551368
0.4476317816440577
0.4210020720258901
0.3934260649443608
0.3656382250871544
0.3380033732132025
0.3106620760532748
0.2836782284086204
0.2571453271861775
0.2312797044312873
0.206396811932234
0.1829696688155589
0.1644582155441539
0.1560733365287516
0.164186734814193
0.1995197573075399
0.3139333748888753
0.5416527917039262
0.885013307673984
1.26686889206464
1.44535380373523
1.491480774455612
1.494596059794061
1.494604679866629
1.494607494279973
1.494610060530308
1.494611190401149
1.494610445218738
1.494609310366284
1.494609642252151
1.494610474599216
1.494610850314521
1.494610734101352
1.494610343309288
1.494609966588258
1.494609610468845
1.494609242950131
1.494608842105346
1.49460850419328
1.494608459872574
1.494608666717507
1.494608954996363
1.49460908861345
1.494609120708587
1.494609139958821
1.49460908906657
1.494608955457984
1.494608678158691
1.494609672196475
1.494608077827827
1.494887764847965
0.8256954952650957
1.494550945559677
1.492025145091178
1.469270449654068
1.375452163912647
1.137786438872572
0.804319445497772
0.5514791642591333
0.3872955296615444
0.3078416042994129
0.2816224048977545
0.2789617881311001
0.2820363976219001
0.2884632384851723
0.2998323104922577
0.3157292205280011
0.3352938423123095
0.357610594057416
0.3817621790019866
0.4068331232450214
0.4318897080016804
0.4558879960281054
0.4774358103192956
0.4945764025573344
0.5076315668210414
0.5196536776325315
0.5304294999620839
0.5404274196491121
0.5495642706379614
0.5578214227967254
0.5652334393830457
0.5718456781463266
0.5777066225449887
0.5828646742014273
0.5873662308814301
0.5912544960875563
0.5945687695513999
0.5973440347343081
0.5996109038282923
0.6013953743910508
0.602714979014231
0.6035682488475804
0.6039350713347241
0.6037897919691461
0.6031081811936191
0.6018684065451593
0.6000494094675762
0.5976296771275652
0.59458628549314
0.5908935009173493
0.5865216763401798
0.5814365209300124
0.5755985300096594
0.5689627400636073
0.5614181779487152
0.5524593488574847
0.5414387112422505
0.5283757515765672
0.5113574423235694
0.4892848384101982
0.4631383241638735
0.4346938204396727
0.4052010519241125
0.3754014679068159
0.3456346478456094
0.3159995022486218
0.286524343975592
0.2573108058432095
0.2286534969213299
0.2011824347078018
0.1790289459675735
0.168318716605481
0.1753887517407396
0.2135408514207806
0.3466956979016622
0.5727718314622019
0.9665426248169023
1.326887401632945
1.468599740156898
1.493789785493644
1.494603500672928
1.494607575445852
1.494610047575326
1.49461130387095
1.494610634511708
1.494609314427528
1.494609626551506
1.494610488724974
1.494610882293954
1.494610768970873
1.494610370600549
1.494609987102978
1.494609624337128
1.494609250603476
1.494608844499876
1.494608502622492
1.494608457267469
1.494608665196523
1.494608955222341
1.494609089209894
1.494609121059019
1.494609141088251
1.494609089380176
1.494608964491745
1.494608692299548
1.494609803982344
1.494606146899144
1.494953891215696
0.8330881709612989
1.494558697210356
1.492370836961815
1.472655214930938
1.391134868282785
1.180142743274815
0.8608522186560109
0.6029200921315473
0.4337939379452473
0.343669420035647
0.3120320039697508
0.3029137839879351
0.3028062533268633
0.3073253021701732
0.3175569677990116
0.3328979163270092
0.3522677961280767
0.3745802647987915
0.3987927519971372
0.4239087504635585
0.4489533895736984
0.4728635824821409
0.4942135276220922
0.510989402543757
0.5236788082433609
0.535772265593358
0.5466671978558285
0.5568165277938567
0.5661274901799604
0.5745727860982339
0.5821813281339059
0.5889963165491712
0.5950649170446083
0.6004349362835351
0.6051526214534945
0.6092613326509471
0.6128008940101585
0.6158072606895514
0.6183123526500537
0.6203440593236509
0.6219235597631932
0.623056129708128
0.6237283033924887
0.6239191368026535
0.6236089993820245
0.6227808469116545
0.6214192718779143
0.6195086530473852
0.6170328034163631
0.6139747759533716
0.610315955413287
0.6060353067413878
0.60110861549342
0.5955076485639386
0.5891992271500492
0.5821430962976859
0.5741498418367362
0.5647971003625546
0.5535882592238013
0.538596079963708
0.5185207558338181
0.4935776960161087
0.4652813435175688
0.4351911318221509
0.4043080046094162
0.3731234109078443
0.3417662369008909
0.310197381642026
0.2784168604229978
0.2466595788118372
0.2158223693034129
0.191706086878856
0.1814206542788087
0.1910935848746796
0.2445261459025164
0.4088449245387249
0.6681290486472243
1.111750337081341
1.402241285927613
1.48638776695927
1.494525416745315
1.494606602193474
1.494610009593822
1.494611352111404
1.494610602034516
1.49460929916145
1.494609609929523
1.494610499212411
1.494610909337662
1.494610798079364
1.494610390584997
1.49461000017149
1.494609633589034
1.494609258359229
1.494608850422192
1.494608505768366
1.49460846016427
1.494608667447914
1.494608955764325
1.494609088817467
1.494609119974821
1.494609141590577
1.494609084053122
1.494608972956315
1.494608709672471
1.494610054720812
1.494600115438839
1.495009592222899
0.8276438042953402
1.494564271877197
1.492619452109661
1.47509032943551
1.402459169123289
1.211542855793166
0.9051143500161309
0.6412625857322988
0.4682157936430065
0.3700820254812764
0.3303031969709642
0.3238190254016393
0.324225618693259
0.3283076729652393
0.3380725902935484
0.353253307997876
0.3727460267115015
0.3953668890399066
0.4199713946241668
0.4454796965148315
0.4708579390968515
0.4949994774035819
0.516425987679259
0.5331365608775596
0.5457703468627626
0.5579139593490021
0.5688240022566853
0.5789684096098747
0.5882610640003604
0.596678807396919
0.6042499005376842
0.611019266304664
0.6170357274894851
0.6223485751785324
0.6270054717211173
0.6310512417444973
0.6345271423286657
0.6374704832247088
0.6399146256669611
0.6418889294917272
0.6434171725108977
0.6445111905835296
0.6451660666837022
0.6453655523921908
0.6450904071437211
0.6443228657752595
0.6430479151455157
0.6412524453130855
0.6389236836372439
0.6360481366996378
0.6326109286527992
0.6285950935699044
0.6239807728261912
0.6187443614635699
0.6128575413041925
0.6062859536072527
0.5989900369190699
0.5908409658885531
0.5813291907241631
0.5699017454216891
0.5560942718770879
0.5385320055595372
0.5153622432160294
0.4874979407565073
0.4569251999516319
0.4250280200423928
0.3925353265955023
0.3596666752951453
0.3263531100940082
0.2925051279896871
0.2583007047960002
0.2251968270376675
0.2016112569088921
0.1950935143893647
0.2122236494654477
0.3032708265711766
0.4971233257051372
0.8334984358763794
1.271378261973294
1.459342167084511
1.493281957890718
1.494608027653074
1.494610067733402
1.494611501070148
1.494610796866497
1.494609300854872
1.494609592843253
1.494610508681158
1.494610933350683
1.494610823836783
1.494610408853141
1.494610012523959
1.494609640833865
1.494609261440578
1.494608851486336
1.494608507332252
1.494608462432488
1.494608668474904
1.494608953860052
1.494609085115831
1.494609114928791
1.494609138366613
1.494609077021227
1.49460897786936
1.49460873299952
1.494610550893986
1.49459039584914
1.495047437663118
0.9185978044130134
1.494569325706824
1.49284484267301
1.477298445357733
1.412758718091021
1.240735947062668
0.9487107659428509
0.6774410690752501
0.4987042193101059
0.3947830960156956
0.3494874422717141
0.3396353853029765
0.3419018283734961
0.3460858876588076
0.3555138110447763
0.3703761740102313
0.3896311907842579
0.4120551208811977
0.4364559550321044
0.4617310066470309
0.4868527352776482
0.5107379383886518
0.5319285475907922
0.5483867901364634
0.5607561818556215
0.5728209266974589
0.5837340790577451
0.5939079067617308
0.6032584738945875
0.6117615897056201
0.6194388512494828
0.6263304732772199
0.6324817242702125
0.6379392755741133
0.6427488460023331
0.646953771393089
0.6505941630705147
0.6537064402982022
0.656323175287903
0.6584730604093806
0.6601799645662398
0.6614588163729227
0.6623108411456572
0.6627263110131537
0.6626904284194277
0.662187980017919
0.661206635475904
0.6597356487242341
0.6577633401476123
0.6552764948402487
0.652260801114936
0.6487007323773353
0.6445791027442881
0.6398764887682398
0.6345707097741233
0.628636476254117
0.6220407536423368
0.6147428951248807
0.6066525324889238
0.5972423874375185
0.586170496966228
0.5726733842827921
0.5554684284339814
0.5328289298125488
0.505272479659584
0.4744289249074918
0.4417781188156849
0.4081173706716111
0.373692949604876
0.3384379904955633
0.3022766815038232
0.2654862272317584
0.2312932538501202
0.2110881421314381
0.2110460760154948
0.2480212671622412
0.3968230429297832
0.6247474330400089
1.062316260542408
1.397602790942573
1.486989495795104
1.49454698788541
1.494609931335321
1.494611550517403
1.494610757890392
1.4946092874897
1.494609576793546
1.494610518243448
1.494610958709121
1.494610851186407
1.49461042723311
1.494610024076731
1.494609648329892
1.494609266680194
1.49460885446876
1.494608509037597
1.494608465575782
1.494608670916427
1.494608952357432
1.494609081138764
1.49460910870186
1.49460913482307
1.494609064113202
1.494608985846356
1.494608769190597
1.494611142512329
1.494577829818849
1.495094828681684
0.8702627275179592
1.494574639203021
1.493081826079646
1.479621434734168
1.423647329576389
1.272621226782347
1.002297020689689
0.7273595274951555
0.5416386026897377
0.4305189123685784
0.3786267752884717
0.3654112002051427
0.3661660637384772
0.3688469952924197
0.3771206875892306
0.3913276565617286
0.410299941058911
0.432670068774089
0.4571311779876865
0.4825031657469784
0.5077103857163351
0.5316292123422802
0.5527308611479708
0.5689649858754696
0.5811203908060435
0.5931514332752129
0.6040523200732628
0.6142032899194046
0.6235221522711747
0.6319892635085871
0.6396250867277434
0.6464684981317057
0.6525640918718805
0.6579583215775281
0.6626969101186461
0.6668232807018426
0.6703779148605703
0.673397853946949
0.67591631099813
0.6779626593450863
0.6795617848824207
0.6807312396667876
0.6814768142028079
0.6817926599968901
0.6816670830378085
0.6810884532871582
0.6800475587193096
0.6785358616633101
0.6765426405902841
0.6740539991230875
0.6710536886472099
0.6675240344943448
0.6634462267398442
0.6587975039362675
0.653551326106895
0.6476800669377775
0.641156701942758
0.6339538113232361
0.6260396704613336
0.6173517678213889
0.6074290110536759
0.5956079942271674
0.5820735002316351
0.5646304120486276
0.5421853028863025
0.5145680792930531
0.4834204016518477
0.4502996733999827
0.4159673101290772
0.3805675995600215
0.3439466912251917
0.3060180929014496
0.2673329749841035
0.2350014062308717
0.2216593787603466
0.2326556766954664
0.3224683795793872
0.5119337068449004
0.8444769680203312
1.28945488478646
1.467619134274074
1.493950856359561
1.494609651621781
1.49461177838845
1.494610978613072
1.494609287212248
1.494609562515288
1.494610529635311
1.494610982848038
1.494610875914495
1.49461044422998
1.494610034956962
1.4946096537755
1.494609267314226
1.494608852742739
1.494608509068976
1.494608467865035
1.494608672004281
1.494608948410037
1.494609073824867
1.494609098454522
1.494609127795496
1.494609047303471
1.494609001310252
1.494608784874903
1.494610423795364
1.494571712825867
1.49518548698457
0.6843624218177519
1.494579165343811
1.493283695648162
1.481600536501678
1.432942858223992
1.300282861442403
1.051594783378257
0.7741700269274548
0.5797813908824352
0.4627711370982467
0.4052814152251218
0.3884947182289631
0.3861316782738796
0.3888853221901662
0.396523329888796
0.4101373915785509
0.42867692889379
0.4507212395191382
0.4748982740537844
0.4999905835916072
0.5249106732836472
0.5485245961327475
0.569263444124485
0.5850307235229968
0.5969051708765508
0.6087948594249729
0.6196408213059441
0.6297563144412438
0.6390551314151066
0.6475143333347115
0.6551506811752601
0.6620006937522362
0.6681075143874706
0.6735169864767853
0.6782748202712737
0.6824248465743069
0.6860074527896602
0.6890590449933767
0.691612349029241
0.6936963293635193
0.6953360437635724
0.6965505826726058
0.6973493792304911
0.6977318894883731
0.6976921954478923
0.6972238003573927
0.6963208639579169
0.6949756776850465
0.6931755916179441
0.6909027361447529
0.6881356682860825
0.6848505693158847
0.6810215695885657
0.6766271519641576
0.671650062570249
0.6660715619708232
0.6598726397143293
0.6530346000516205
0.6455388959427875
0.637362336490822
0.6284681012166348
0.6183714258963062
0.6065075876622446
0.5919883731628917
0.5741700075459015
0.5510848202638623
0.5228590369180877
0.4908949218181241
0.4567614389213388
0.4211843648712008
0.3842341844865453
0.3457228841434846
0.3056409583351884
0.2659068161941966
0.2396064311988595
0.2360837053183438
0.2791690512809186
0.4422756395180423
0.6743599762075434
1.12380390055619
1.427179427786835
1.491266735394724
1.49460614750118
1.494611681864869
1.494610931541533
1.49460927549365
1.494609547810989
1.494610539929237
1.494611007564847
1.494610901955884
1.494610461435909
1.494610045355253
1.494609660002035
1.494609271167732
1.494608854816306
1.494608511591672
1.494608473179441
1.494608675865856
1.494608945217312
1.494609065473204
1.494609085493198
1.49460912041691
1.494609018701433
1.494609022174167
1.494608572207788
1.494606009819013
1.494566206992543
1.495301205178194
0.4202171396232944
1.494583127563832
1.493460419458447
1.483333659141018
1.441104763105242
1.325011852923517
1.09901459262845
0.8239559762521973
0.6193366871319735
0.4938087188108998
0.4288252715414452
0.4065547243240918
0.4023658348582432
0.4082332514108109
0.4168845958124591
0.4305935216577295
0.4488724178976262
0.4705053747192998
0.4941893420530695
0.5187297904565988
0.5430392120718437
0.5659639978096109
0.5859068822707511
0.6007370676765234
0.6134295093990955
0.6252814481532746
0.6360655522670411
0.6460961682926244
0.6552923451087128
0.6636354888562755
0.6711472319141476
0.6778641091895887
0.6838289994486025
0.6890872689194736
0.693683993240868
0.697662377128804
0.70106301314306
0.7039232923927621
0.706276839377191
0.7081537500828755
0.7095803823723361
0.7105779912396578
0.711160783544533
0.711335117170239
0.7111022453026465
0.7104616114526099
0.709410483031737
0.707940861922866
0.7060372085574238
0.7036787333111966
0.7008421958416339
0.6975025205882204
0.6936335633252672
0.6892057979836098
0.6841884801476665
0.6785561486137963
0.6722913144126745
0.6653856189855667
0.6578387703493995
0.6496569519004848