/*--------------------------------*- C++ -*----------------------------------*\
| =========                 |                                                 |
| \\      /  F ield         | OpenFOAM: The Open Source CFD Toolbox           |
|  \\    /   O peration     | Version:  v1812                                 |
|   \\  /    A nd           | Web:      www.OpenFOAM.com                      |
|    \\/     M anipulation  |                                                 |
\*---------------------------------------------------------------------------*/
FoamFile
{
    version     2.0;
    format      ascii;
    class       volScalarField;
    location    "0.00000125";
    object      k;
}
// * * * * * * * * * * * * * * * * * * * * * * * * * * * * * * * * * * * * * //

dimensions      [0 2 -2 0 0 0 0];


internalField   nonuniform List<scalar> 
44064
(
8.245110159385571e-07
2.290519535957628e-05
0.0001508868103859141
0.000525691377320609
0.001288899473387701
0.002459680866120119
0.003837674678262135
0.005147910361524082
0.006256501855321036
0.007167981175121484
0.00789439410364106
0.00846083236313345
0.008895705208482379
0.009225102992210514
0.009470808217486157
0.009650158773044228
0.009776625845418588
0.009860556123571855
0.009909856949043477
0.009930558598900097
0.009927252295809597
0.009903424270764336
0.009861709574782249
0.009804085687468954
0.009732020725459397
0.009646587037361681
0.009548549181922607
0.009438435320083767
0.009316602206852832
0.009183298486880194
0.009038713209779779
0.008883003264920163
0.008716309421710705
0.00853876423042494
0.008350492145470416
0.008151602275086597
0.007942176824729783
0.007722264911685999
0.007491901042917014
0.007251148549416651
0.007000130765107271
0.006739042608185756
0.006468162863233157
0.006187867642482565
0.005898643536549471
0.00560109579879366
0.005295942808552311
0.004983985236980023
0.004666042619010875
0.004342871951613236
0.004015136076071553
0.003683601002777437
0.003349940870630752
0.00301826090361006
0.002696153373435913
0.002393610768597128
0.002118170651468636
0.001863708924208226
0.001619700784931765
0.001383841562370709
0.001157780593222896
0.0009433464391497093
0.0007428737147621519
0.0005595439808900866
0.000397325215600608
0.000261245701921845
0.0001556345845694939
8.119707420382932e-05
3.576044404490846e-05
1.331238755415808e-05
4.372332122122037e-06
1.342766937882332e-06
4.242304555736328e-07
1.690182610848554e-07
1.035659198212996e-07
8.807984161859206e-08
8.470743586395019e-08
8.403303645145171e-08
8.390951942342276e-08
8.388884867667486e-08
8.388563337301387e-08
8.388510688860685e-08
8.388495481474743e-08
8.388484920762906e-08
8.388474598003787e-08
8.388464194867184e-08
8.388453776288053e-08
8.388443439143879e-08
8.388433103515005e-08
8.388423788744453e-08
8.388413604070916e-08
8.388403674728372e-08
8.388395392350779e-08
8.388387005998494e-08
8.388379182103405e-08
8.388373304509712e-08
8.388367969992666e-08
8.388361237921007e-08
8.388357547754718e-08
8.388355462937502e-08
8.388353203500939e-08
8.388351709539856e-08
8.388351169195957e-08
8.388404625659125e-08
8.414499531757253e-08
1.625585091638391e-07
1.673477775205402e-05
0.002100901048234146
1.214480869386459e-08
3.373992370967894e-07
2.224589861908191e-06
7.822203901017832e-06
1.992961819399188e-05
4.188685265806241e-05
7.73384310171431e-05
0.0001297640007268626
0.00020186621033174
0.000295121645025644
0.0004098735065676509
0.0005460912080466596
0.0007045179589655898
0.0008876941970391274
0.001100484412204032
0.00134946794090602
0.00164010255806807
0.00197150867946993
0.002332886603431998
0.002705166978712861
0.003065975621201492
0.003395327504170396
0.00368012202223123
0.003916282309429652
0.004107446382621715
0.004261340268892641
0.004384959175810763
0.00448384795482617
0.00456287821629652
0.004625707894202638
0.004674973039715412
0.004712553663591098
0.004739777070559855
0.004757564097610968
0.00476653398866311
0.004767080394333493
0.004759427622648343
0.004743673701522217
0.004719823956028131
0.004687805894603781
0.004647478767598203
0.004598652549596373
0.004541105262681307
0.004474599676061473
0.004398900226489842
0.004313790872295933
0.004219094577543128
0.004114695241447838
0.004000563275739371
0.003876786860166139
0.003742616017092186
0.003596660164525387
0.003437775091991486
0.003265331352996071
0.003079448909372868
0.002881163485407355
0.002672435208328189
0.002456030898675479
0.002235511578754511
0.002014745445745876
0.001795471771942758
0.001575341066927775
0.001352980322983395
0.001130357551564288
0.0009100825474597555
0.0006962302865870495
0.0004964137028285761
0.0003210616698765465
0.0001792774837790763
7.910040985851641e-05
2.481787194223053e-05
5.663005635159917e-06
1.162129096529693e-06
2.787806034530494e-07
1.10031697050617e-07
7.747806155626554e-08
7.121167070773159e-08
7.003796378731292e-08
6.982835395177411e-08
6.979245705505257e-08
6.978572794088237e-08
6.97834357043294e-08
6.978167014461739e-08
6.977987278861598e-08
6.977797975479467e-08
6.977598945272492e-08
6.977390897918876e-08
6.977174876759976e-08
6.976951813720043e-08
6.976723883838742e-08
6.976493186765513e-08
6.976256067697698e-08
6.976015523218819e-08
6.975776090836332e-08
6.975539721017396e-08
6.975311102601468e-08
6.975092215516476e-08
6.974889796321379e-08
6.974736716386329e-08
6.974606617519031e-08
6.974503062490084e-08
6.97443302416849e-08
6.974404117370947e-08
6.97480129706514e-08
7.128310013341504e-08
4.459106354736371e-07
6.247769197911683e-05
0.005466769802306859
3.898575601718527e-07
1.083071513497149e-05
7.138713127391594e-05
0.0002501533621285425
0.000627980860041813
0.001266556682357586
0.00214873173851274
0.003152213153064072
0.004125916930200751
0.004983249697044485
0.005711144286255228
0.006320409950580181
0.006823598797536082
0.00723616830866108
0.007573608745970643
0.007849712258086831
0.008075968412073574
0.008261586133915956
0.008413789439952222
0.008538208496407637
0.008639238859393427
0.008720288945841632
0.008783954131634577
0.008832199975234762
0.008866542230225982
0.008888167869753688
0.008898010095287297
0.008896798240565178
0.008885093844417376
0.008863314774669591
0.008831754961744495
0.00879060087639583
0.008739945848755008
0.008679802919506437
0.008610116716448733
0.008530774679114192
0.008441617709129193
0.008342450107571899
0.008233048666459575
0.008113170973083235
0.007982563245277647
0.007840968187075673
0.007688133506875408
0.007523822002296755
0.007347824407924972
0.007159976335064233
0.006960180189967921
0.006748431257620153
0.006524843363222679
0.006289663267462768
0.006043255514232709
0.005786037457153208
0.005518352277760477
0.005240364392432715
0.004952112358444729
0.004653711686712735
0.004345630335854509
0.004028949656213555
0.003705434842262578
0.003377255554526233
0.00304643941634172
0.002714544091428391
0.002383076053732955
0.002054569267416591
0.001733792757861973
0.001427590143719391
0.001138588631790419
0.0008636471587091845
0.0006076523751506217
0.0003832345770081909
0.0002027894037051024
8.149084933421789e-05
2.257211653128163e-05
4.513686556370914e-06
7.963589536168462e-07
1.708986574817837e-07
7.577181446720842e-08
6.233979988112528e-08
6.056156567275303e-08
6.033821413035741e-08
6.031030462376167e-08
6.030562066433147e-08
6.030347401109839e-08
6.030150295309258e-08
6.02994534457748e-08
6.029730258906972e-08
6.029505250628812e-08
6.029271021665393e-08
6.029028052430526e-08
6.028778021945749e-08
6.028520976798911e-08
6.028256422722347e-08
6.027987803303197e-08
6.027717427270219e-08
6.027447131026158e-08
6.027184697151464e-08
6.02693583065354e-08
6.026700359372654e-08
6.026510045964546e-08
6.026345599229535e-08
6.026212838112883e-08
6.026121209167465e-08
6.026082139540795e-08
6.027208839525129e-08
6.438938876981629e-08
9.673365974740455e-07
0.0001234065616170317
0.007351765760970016
3.749832092998619e-07
1.041754398619491e-05
6.866767067840741e-05
0.0002406775934547379
0.0006044211448193059
0.001219069663705251
0.002066359371101871
0.003026127574595805
0.003952470324513717
0.00476539202131285
0.005455106763234048
0.006030946741489567
0.006504863624657961
0.006891758158553147
0.007206661476906734
0.007463087729527927
0.007672455538385151
0.007844092805411733
0.007985486439612641
0.008102577306993859
0.008200022990077806
0.008281435086203612
0.008349606934985172
0.008406711591111345
0.008454439730558197
0.008494081280398639
0.008526554142664979
0.008552476724709209
0.008572189605618797
0.008585919051087168
0.00859385151793819
0.008596140866823291
0.008592915441007071
0.008584285271665828
0.008570349657286185
0.008551129456806628
0.008526542955259273
0.008496365382008441
0.00846023623469626
0.008417686802383429
0.008368158416414426
0.008311014678010474
0.0082455502530684
0.008170998022729456
0.008086534965499482
0.007991285413287842
0.007884319204817289
0.007764642103959507
0.007631176722831681
0.007482735632141168
0.007317997617936019
0.007135517774032534
0.00693380959651744
0.006711469094366137
0.006467254454671517
0.006200135221084099
0.005909386040030279
0.005594750466699883
0.005256668246410464
0.004896491292350146
0.004516492846819473
0.004119528513828585
0.003708802341610445
0.003288347497566676
0.002863521424051281
0.002440760963763175
0.00202721169992301
0.001631195767617522
0.001263176019139858
0.0009278404466798527
0.0006258680541630807
0.0003659212596272035
0.0001688462525763279
5.413939738900617e-05
1.130086276730501e-05
1.80023564029324e-06
2.900908271836163e-07
8.280076684823428e-08
5.68752911770809e-08
5.389406935369126e-08
5.357696525134236e-08
5.354424608670751e-08
5.353938552121422e-08
5.3536940663549e-08
5.353459842582946e-08
5.35321634864234e-08
5.352962453708404e-08
5.352699003860573e-08
5.352426647850843e-08
5.352147095777054e-08
5.351860266746416e-08
5.351571728188624e-08
5.351280605844021e-08
5.350988437785308e-08
5.350697167764505e-08
5.35041334443193e-08
5.350142110589259e-08
5.349884131011312e-08
5.349667439458314e-08
5.349480880309428e-08
5.349331099755019e-08
5.349228567323197e-08
5.349187646604823e-08
5.351679626223626e-08
6.214956335641058e-08
1.790628684777173e-06
0.0001994602179564835
0.009677436804734341
3.525111979152949e-07
9.793266878976505e-06
6.455618281845632e-05
0.0002263341998163357
0.0005689094103728981
0.001149651082775429
0.001954981226752194
0.002874272042856383
0.003768361248213052
0.004557321597899133
0.005228732038285681
0.005791398194405837
0.006256085698083027
0.006636652376550363
0.006947347784175498
0.007201133457472958
0.007409041797702753
0.007580124223672973
0.007721662157636566
0.007839461130459007
0.007938142178982909
0.008021393941884601
0.008092170248727626
0.008152823497061892
0.008205160059884023
0.008250458015835514
0.008289512706649863
0.008322709563512604
0.008350369195410134
0.008372755498948722
0.008390082482787199
0.008402519997208983
0.008410198571878136
0.008413213537291563
0.008411628577764289
0.008405478837581182
0.008394773839291967
0.008379500519259633
0.008359626759939733
0.008335105710068022
0.008305881171800398
0.008271894356973099
0.008233092335883098
0.008189300741577688
0.00814010879771075
0.008084860914440474
0.00802266766956365
0.007952457559142114
0.00787301189965965
0.007782988584785148
0.007680937232790564
0.007565306892493944
0.007434448838539078
0.007286617699095996
0.007119972785477033
0.006932580029833789
0.006722413384686062
0.006487353778280792
0.006225190327454127
0.005933658042845915
0.005610628628030911
0.005254586874993957
0.004865246625198625
0.004444012002809328
0.00399442767920723
0.003522707082619919
0.003037401172953921
0.002548725548873015
0.002068703438922822
0.001611548258006435
0.00119574792994054
0.0008283683360379798
0.0005068068243445073
0.0002472265869618095
8.312591669083385e-05
1.69482170479885e-05
2.376479855848358e-06
3.194278535270327e-07
7.71936617987581e-08
5.128300098437101e-08
4.873393075328509e-08
4.850147726806391e-08
4.848011626682832e-08
4.847635806926404e-08
4.847383048739566e-08
4.847127939349587e-08
4.846862323781526e-08
4.846586280769382e-08
4.846300232370739e-08
4.846005829872354e-08
4.845703891590497e-08
4.845399818607616e-08
4.845092767291621e-08
4.844784241254674e-08
4.844476304365217e-08
4.844174958148768e-08
4.843885109427012e-08
4.843608139040723e-08
4.843369649967944e-08
4.843164064201556e-08
4.842998745635096e-08
4.842884990979352e-08
4.842840345258246e-08
4.847401810562286e-08
6.324931195703523e-08
2.685076359112645e-06
0.000240896433770055
0.008490557270733706
3.146215417012807e-07
8.740668177903883e-06
5.76218293256444e-05
0.0002021240320301594
0.0005090339652662795
0.001033729377147695
0.001773256468562506
0.002636340562159483
0.003493846868221122
0.004261330281260716
0.004918646374574926
0.005473530611417604
0.005934547580677225
0.006313870368825399
0.006624664863469191
0.006879256662164528
0.00708833476334981
0.007260787813977213
0.007403844625220736
0.007523327290605807
0.00762391905221683
0.007709399744682533
0.007782823499326257
0.007846617502871989
0.00790257093978915
0.007951918554029883
0.007995187631042412
0.008032813493104699
0.008065161509896395
0.008092536189068805
0.008115188647542198
0.008133322738716059
0.008147100079567961
0.008156644183853453
0.008162043873380211
0.008163356110095469
0.008160608366867283
0.008153800635022003
0.008142907150072683
0.008127877900976787
0.008108639971212852
0.008085098739809039
0.008057138952603016
0.008024625650398905
0.007987405564902749
0.007945310145935618
0.007898161382886276
0.007845781468413452
0.007787976401221982
0.007724132470984589
0.007653276400341261
0.007574089357390755
0.007484997570914314
0.007384236387938005
0.007269888971859171
0.007139899319631083
0.006992062901975735
0.006824002552597273
0.006633141708656474
0.006416691120433231
0.006171667033769484
0.005894953459121468
0.005583406269691896
0.005234000457497768
0.00484411567281984
0.004412341203206697
0.003940237974690871
0.003434573555488531
0.002907462121655531
0.002374539750437146
0.001854922663125537
0.001373065218425738
0.0009530660485642484
0.0005894180138688708
0.0002876477360032778
9.354031470420905e-05
1.729143385502042e-05
2.086128616326487e-06
2.471156499766981e-07
6.287720468084643e-08
4.608049269953253e-08
4.466976220721938e-08
4.455880593322183e-08
4.454874528338251e-08
4.45457837980145e-08
4.454317650314694e-08
4.454048099660863e-08
4.453767894984405e-08
4.453477361594145e-08
4.453178146304243e-08
4.452871318881315e-08
4.452561255728454e-08
4.452247878730384e-08
4.451932711451802e-08
4.451617910209561e-08
4.4513088121832e-08
4.451010099692412e-08
4.450723600515873e-08
4.450472848360338e-08
4.450256103979522e-08
4.450081059183821e-08
4.449959692623857e-08
4.449915330959923e-08
4.457522441092781e-08
6.725403635028867e-08
3.70186021825714e-06
0.0002902902341992837
0.009576293922226269
2.931444821169705e-07
8.144020187438845e-06
5.369091350968373e-05
0.0001883896397608112
0.0004749447641064429
0.0009670656127948605
0.001666892420582201
0.002493850483016009
0.003325710857824652
0.004076656066237882
0.004722429114388649
0.005270026822941751
0.005726656476591084
0.006103418591846288
0.006412755932800624
0.006666542955039196
0.006875201784226066
0.007047470923356317
0.007190500542512038
0.007310077469412949
0.007410876223120682
0.007496684200665036
0.007570571982250863
0.007634984178017945
0.00769172664830114
0.0077420334605233
0.007786431099521074
0.007825365709614531
0.00785921414904745
0.007888293113914603
0.00791286664003739
0.007933152244125656
0.007949325944254897
0.007961526363304047
0.007969858085336358
0.007974394405701883
0.007975179591910497
0.007972230752562421
0.007965539396046498
0.00795507274922525
0.007940774895578335
0.007922567782098057
0.007900352140830087
0.007874008369005224
0.007843397407365314
0.007808361652631764
0.007768725930498818
0.007724298533458436
0.007674872286686519
0.007620225800808225
0.007560128822929086
0.007494354186299085
0.007422211754044803
0.007342568745380936
0.007253899452238575
0.007154382531563585
0.007041970640301242
0.006914426193887565
0.006769323024794998
0.006604019065906416
0.006415610523867031
0.006200881958631072
0.00595626921056746
0.005677856408087932
0.005361440411286394
0.005002721821933626
0.004597721654134601
0.004143680119439283
0.00364162737895327
0.003100238691199068
0.002536557030775329
0.001974802989777411
0.001448766923227966
0.0009944928424306765
0.0006035666055459177
0.0002801602111918068
8.117568972463349e-05
1.252559086260513e-05
1.280589660411826e-06
1.46647778773011e-07
4.959325906467641e-08
4.199822842184285e-08
4.144920540676595e-08
4.141063061356546e-08
4.140595626390768e-08
4.140324628874692e-08
4.140053822783044e-08
4.139772724783401e-08
4.139481215080047e-08
4.139180815959383e-08
4.138872576410893e-08
4.13856034486027e-08
4.138244716481669e-08
4.137927240676914e-08
4.137609990720446e-08
4.137298046990367e-08
4.136995897719481e-08
4.136705501200237e-08
4.136448780932353e-08
4.136226612334986e-08
4.136046875707594e-08
4.135921568364365e-08
4.135881559771457e-08
4.14772189645671e-08
7.390172334191665e-08
4.848913276392634e-06
0.0003436078584362465
0.010838992272303
2.706894031937372e-07
7.520198045311136e-06
4.958045650991414e-05
0.0001740192888768526
0.0004392232016155369
0.0008970297537068328
0.00155477025891854
0.002343530205262512
0.003149212524743957
0.003884521940401554
0.004520126574522519
0.005062152914377881
0.005516233140785917
0.005892238363154754
0.006201797502695619
0.006456292606339431
0.006665868887749244
0.006839121980506944
0.006983139052224979
0.007103690492817841
0.00720546109339604
0.00729226245090008
0.007367192132588822
0.007432709557482475
0.007490630682452347
0.007542152005481127
0.00758782276439252
0.007628109939491432
0.007663409705727026
0.007694056921044301
0.007720332924950805
0.007742471913840443
0.007760666142009832
0.007775070159086423
0.007785804259081399
0.007792957285600587
0.007796588912316793
0.007796731497217795
0.007793391592842627
0.007786551181962079
0.007776168696932003
0.007762179870082406
0.007744498458017291
0.007723016879770014
0.007697606802118576
0.007668119700762776
0.007634387422702785
0.007596222771914567
0.007553420136847722
0.007505756174269865
0.007452990560396257
0.00739486677797235
0.007331112794478867
0.007261447750469568
0.00718533341585971
0.007101674769438791
0.007008900371507891
0.006905070201569522
0.006787966878810389
0.006655143863075059
0.006503927792014617
0.006331377856178826
0.006134212307381036
0.005908719102718585
0.005650673984676443
0.005355299026152897
0.005017317495504749
0.004631216537504271
0.004191957398417333
0.003696946311813938
0.003150618498562832
0.002568870150737864
0.00198067433455122
0.00143022730458129
0.0009583177097103861
0.0005541764631309411
0.0002304671800328103
5.411931889348761e-05
6.483618606439598e-06
5.713158382682757e-07
7.775365831246337e-08
4.145456999062625e-08
3.900099657707452e-08
3.884619688165073e-08
3.883501628892076e-08
3.88319840555509e-08
3.882927161304702e-08
3.882647101653353e-08
3.882356675310956e-08
3.882057259845426e-08
3.881749872931709e-08
3.881437939769971e-08
3.88112255050545e-08
3.880805283520992e-08
3.880488232078419e-08
3.880176200572097e-08
3.879873419993612e-08
3.879582003541689e-08
3.879322530881301e-08
3.8790977854406e-08
3.878915923622291e-08
3.878787890184951e-08
3.878757231185916e-08
3.896151226988316e-08
8.318167222367702e-08
6.198279385306906e-06
0.000411634141650616
0.01311720133539306
2.514890482482492e-07
6.986793221118724e-06
4.606550660608019e-05
0.0001617240493377443
0.0004085922269841672
0.0008366412007228051
0.001457243520417213
0.002211443302270476
0.002992738347279523
0.003713322512146467
0.004339570111455075
0.004875998122375975
0.005327210428623472
0.005702045288135575
0.006011402030756727
0.006266205093563212
0.006476333660653584
0.006650239809915445
0.006794941513760148
0.006916183904694246
0.007018652042167051
0.007106171659446733
0.007181858796203782
0.007248183440920486
0.007306968044092552
0.007359377989059391
0.00740597827944886
0.007447250501310062
0.00748360459440502
0.007515388605370299
0.007542896706794174
0.007566375748055616
0.007586030592111629
0.007602028454324125
0.007614502422532336
0.0076235543053914
0.007629256929493398
0.007631655984120977
0.007630771495377864
0.007626598997929029
0.007619110460850122
0.007608255012767886
0.007593959506560168
0.007576128960926209
0.007554646909304043
0.007529375681536043
0.007500156640032455
0.007466810389068867
0.007429136972081965
0.007386916066599258
0.007339907179914005
0.007287849840091185
0.007230463766590384
0.007167448998058542
0.007098485819348757
0.007023238603629269
0.006941118215292428
0.006850896702831235
0.006750812081399527
0.006638708437142244
0.00651213151092045
0.006368368465282471
0.006204429095560029
0.006016972050175624
0.005802188444309098
0.005555663426662679
0.005272245238373946
0.004945971998151766
0.004570166810963853
0.004137978630285541
0.003644337366447979
0.003091385896851084
0.002495335549333492
0.001891061396910777
0.001333220831463042
0.0008571801187346992
0.0004529570313901577
0.0001553607639640841
2.663910555180271e-05
2.424705005601881e-06
2.039217481369258e-07
4.731191136911686e-08
3.731126566966485e-08
3.672174541711106e-08
3.668756901814466e-08
3.668343856192802e-08
3.668069919755636e-08
3.667792014738078e-08
3.667503988961039e-08
3.667206967304511e-08
3.666901931639585e-08
3.66659195701713e-08
3.666278500200594e-08
3.665963169925385e-08
3.665647973246547e-08
3.665337559315274e-08
3.665036024257102e-08
3.66474550380466e-08
3.664485469071654e-08
3.664260092780979e-08
3.664077944359375e-08
3.663948486977432e-08
3.663931982246981e-08
3.68833776267066e-08
9.530458239660185e-08
7.854781083115268e-06
0.0005034284476063719
0.01610336356035559
2.334235224838914e-07
6.484912999979906e-06
4.275800437869378e-05
0.0001501479808007113
0.0003796940374861619
0.000779378921478211
0.00136395478660391
0.002083868935216821
0.002840796586282438
0.003547673676966609
0.004166727059525107
0.004698724545119147
0.005148101396613899
0.005522744468867649
0.005832797835817176
0.006088704980291651
0.006300070333618867
0.006475203681306206
0.006621059454155494
0.006743363855686191
0.006846807462204176
0.006935234304208333
0.007011783838101823
0.007078946843101131
0.007138564622484342
0.007191798721825595
0.007239232866421377
0.007281365365962009
0.007318621293560448
0.007351362589233437
0.007379896374966463
0.007404481751740315
0.007425335338012235
0.007442635772157164
0.007456527363249057
0.007467123041479139
0.00747450673186987
0.007478735252337836
0.007479839819121813
0.007477827228474218
0.007472680771563809
0.007464360928135607
0.007452805878329255
0.007437931869480894
0.007419633468898272
0.007397783728020925
0.007372234280392315
0.007342815393199661
0.007309335989983827
0.007271583659142091
0.007229324658790752
0.00718230392372194
0.007130245073966494
0.007072850416645309
0.007009800923365537
0.006940756160092837
0.006865353967896549
0.006783215277512398
0.006693411911468232
0.006594351252773184
0.006483926240001243
0.006359660623632229
0.006218784513513197
0.006058239614578169
0.005874610429727352
0.005663986174881594
0.00542176875507211
0.00514245495159081
0.004819450682122368
0.004445062691344955
0.004011050420057484
0.003511003724892568
0.002946869858097093
0.002337492299476536
0.001726047372937283
0.00117533941024071
0.0007062422438377754
0.0003190097587442546
8.04825701445947e-05
9.303927887346736e-06
6.866361191179949e-07
7.440026733654481e-08
3.706220764387353e-08
3.497425866860589e-08
3.486469035366929e-08
3.485710440564275e-08
3.485424604850567e-08
3.485149082308082e-08
3.484864086543383e-08
3.484570160280538e-08
3.484268242800932e-08
3.483961117772852e-08
3.48365052182516e-08
3.483338095372125e-08
3.483025841138668e-08
3.482718208984569e-08
3.482419101531849e-08
3.482130723165928e-08
3.481871594528271e-08
3.481646860005788e-08
3.481465762789505e-08
3.4813356249108e-08
3.481338262645433e-08
3.514268544568208e-08
1.106290619439107e-07
9.961316704885414e-06
0.0006281303267021564
0.01970964986718995
2.182270455106635e-07
6.062737115243391e-06
3.997562605674142e-05
0.0001404059215761235
0.0003553327488183254
0.0007308730838208907
0.001284178325868144
0.001973263194940247
0.002707052624381807
0.003399834210555219
0.004010729534610066
0.004537435484376327
0.004984127219527443
0.005357813390993003
0.005667924535302126
0.005924427998296072
0.006136638906549444
0.006312703667699304
0.006459492121180605
0.006582693108148585
0.006686987401047953
0.006776224589675749
0.006853556219949554
0.00692148203944955
0.006981851053970865
0.007035806444750556
0.007083948832206274
0.007126791768284106
0.007164774267683201
0.00719827121201123
0.007227601917853026
0.00725303714728032
0.007274804823958097
0.007293094682289867
0.007308062038083831
0.007319830835150608
0.007328496093618881
0.007334125862348231
0.00733676275910836
0.007336425167325056
0.00733310814607796
0.007326784099090407
0.007317403240880056
0.00730489389453231
0.007289162650859622
0.007270094413630288
0.007247552352019342
0.007221377778634759
0.007191389968872569
0.007157385934504747
0.007119140160541497
0.00707640430900596
0.007028906885786829
0.006976352856507643
0.006918423183386257
0.006854774235922337
0.006785037004615121
0.006708815960399476
0.006625686963783931
0.006535027121114083
0.0064354207877167
0.006324793097722688
0.006200620214469747
0.006060034480264274
0.005899847326519019
0.005716482725061229
0.005505819802653893
0.005262955980529955
0.004981920758142935
0.004655413502236109
0.004274760659371996
0.003830617802928184
0.003316185322243372
0.002735229613116807
0.002112166418058496
0.001503588659367347
0.0009726121603953707
0.0005226396981146519
0.000181775203790138
2.966977333918929e-05
2.343486328582513e-06
1.69247719103213e-07
4.05264226190155e-08
3.364007211934007e-08
3.32994761459972e-08
3.328171237568133e-08
3.327847237454733e-08
3.327573474349768e-08
3.327291838342461e-08
3.327001402476717e-08
3.326703037892368e-08
3.326399280407e-08
3.326092083278338e-08
3.325783122875879e-08
3.325474326457321e-08
3.325170035482093e-08
3.324874053583506e-08
3.324588567759639e-08
3.324331332703327e-08
3.324108114851846e-08
3.323929049652057e-08
3.323799031004738e-08
3.323824136017157e-08
3.366617310618744e-08
1.293881230549724e-07
1.265448291694187e-05
0.0007891545525616284
0.02359180489352383
2.05730977036568e-07
5.715580868604152e-06
3.768755160238189e-05
0.0001323918874997439
0.0003352676174861852
0.0006907954677054254
0.001217893370003285
0.001880693760066522
0.002594382930808865
0.003274803375181271
0.003878594261526591
0.004400707154510463
0.004845087889391897
0.005217980629337197
0.005528191970577925
0.005785268913659802
0.005998267654818291
0.006175185106285591
0.006322810193569194
0.006446791797250486
0.006551794603619757
0.006641666226052741
0.006719565138598505
0.006788003902779813
0.006848847882346399
0.006903255935523577
0.006951841369175303
0.006995129139384823
0.007033568625502517
0.00706754425658063
0.007097384277104604
0.007123367933531939
0.007145731344730492
0.007164672285426742
0.007180354073111146
0.007192908714660232
0.007202439439983521
0.007209022726122444
0.007212709895971136
0.007213528360437549
0.00721148256042545
0.007206554654284889
0.007198704988044769
0.007187872381307981
0.007173974256948774
0.007156906638185218
0.00713654403354498
0.007112739226735203
0.007085322985937849
0.007054103705242572
0.007018866988430543
0.006979375181587208
0.006935366856113716
0.006886556237143424
0.006832632563703758
0.006773259355737282
0.006708073545691052
0.006636684413260801
0.006558672207555782
0.006473585997860608
0.006380907207195891
0.006279265608815161
0.006166557824561108
0.006040191741360501
0.005897202406456006
0.005734275084561219
0.005547662342854137
0.005332989730971308
0.00508496138063674
0.004797003936951074
0.004460950911762714
0.004067046833323894
0.003605051691479263
0.0030689754135346
0.002466933760948276
0.00183438070961538
0.001244224216360642
0.0007415963797128537
0.0003276662503869592
7.575432362249971e-05
7.447628832463772e-06
4.701319778107441e-07
5.440570244549605e-08
3.296644463861826e-08
3.19519595671619e-08
3.190562350775667e-08
3.190130468286318e-08
3.189856214411963e-08
3.189578047119147e-08
3.18929130470472e-08
3.188996721579976e-08
3.188696618963309e-08
3.188393120060534e-08
3.188087936861724e-08
3.187782988976212e-08
3.187482468976493e-08
3.187190037312602e-08
3.186907903163511e-08
3.186653194854455e-08
3.186432001059311e-08
3.186255641133018e-08
3.186125994731805e-08
3.186174535945965e-08
3.239700979679691e-08
1.516333899563232e-07
1.610106703610441e-05
0.000993614880196845
0.02799858117213919
1.922267760813866e-07
5.34041630574441e-06
3.521472053268756e-05
0.0001237272369600418
0.0003135412561767947
0.0006472379207998872
0.001145395509066024
0.001778715984734683
0.002469621523221376
0.003136180060690429
0.003732353211933658
0.004249775347990112
0.004692099163272873
0.005064644554566949
0.005375474621813351
0.005633645013457741
0.005847918606677075
0.006026132188924628
0.006174997387726864
0.006300134885586515
0.006406209281757499
0.006497083082506972
0.006575934629229717
0.006645289361800966
0.00670702141207512
0.006762261276733735
0.006811642207349991
0.006855706494218462
0.006894918740054644
0.006929676904577096
0.006960321413282433
0.00698714262678685
0.007010386944131908
0.007030261777783025
0.007046939598043188
0.007060561209124766
0.007071238389060187
0.007079056000577587
0.007084073659857779
0.007086327034077899
0.007085828825630499
0.007082569490029299
0.007076517725638316
0.00706762076781222
0.007055804516016862
0.007040973518143969
0.007023010832204015
0.00700177778211698
0.006977113621815306
0.00694883512002281
0.006916736075878932
0.006880586772360569
0.006840133370027965
0.006795097236008046
0.006745174194836087
0.006690033676899646
0.006629317724857015
0.006562639796829119
0.006489583274582373
0.006409699527058292
0.006322505023424367
0.006227478368638227
0.006123272029150069
0.006007710078442852
0.005878057822792245
0.00573117290168887
0.005563530839231543
0.005371123703999821
0.005149223117367659
0.00489202137781234
0.004592204708145094
0.004240609134815417
0.003826375630370607
0.003338868055244646