/*--------------------------------*- C++ -*----------------------------------*\
| =========                 |                                                 |
| \\      /  F ield         | OpenFOAM: The Open Source CFD Toolbox           |
|  \\    /   O peration     | Version:  v1812                                 |
|   \\  /    A nd           | Web:      www.OpenFOAM.com                      |
|    \\/     M anipulation  |                                                 |
\*---------------------------------------------------------------------------*/
FoamFile
{
    version     2.0;
    format      ascii;
    class       volScalarField;
    location    "0.00000125";
    object      k;
}
// * * * * * * * * * * * * * * * * * * * * * * * * * * * * * * * * * * * * * //

dimensions      [0 2 -2 0 0 0 0];


internalField   nonuniform List<scalar> 
44064
(
7.816897462871633e-07
2.17156584906288e-05
0.0001430626519843231
0.0004989050020047514
0.001228348979616977
0.002363814182604894
0.003725793313599649
0.005042680506750912
0.006167634268503445
0.007095293547357265
0.007837779178827609
0.008419156276085957
0.008867388071058753
0.00920854375527299
0.00946455642083961
0.009652936782809171
0.009787286490972933
0.009878024718216676
0.009933082053157481
0.009958481366766593
0.009958795827946792
0.009937499591856358
0.009897232630419389
0.009839999745815115
0.009767320201875195
0.00968034068117986
0.009579921109386668
0.009466700407429215
0.009341147365505727
0.009203600452870418
0.009054299368392157
0.008893410400646676
0.008721047132786944
0.008537287651892147
0.008342189182610352
0.008135800958166279
0.007918176172647428
0.007689384013584163
0.007449522971526367
0.007198736630730677
0.006937232470056592
0.006665302511889626
0.006383342570652917
0.006091864767712572
0.005791495172279454
0.005482946126919578
0.005166956775995541
0.004844215418074646
0.004515325480569519
0.004180959183032239
0.003842444799410648
0.003503047700971579
0.003169445016434565
0.002851447530459313
0.002557835772177652
0.002286673201926458
0.002027318137315558
0.001774576355164402
0.00152994923415525
0.001294957431378791
0.001071328561427062
0.0008613321085509283
0.0006679783399316619
0.0004948074818366891
0.0003453877476710778
0.0002226737794493086
0.0001290462996339317
6.507721704370209e-05
2.776854494012888e-05
1.015117383410755e-05
3.326039934956837e-06
1.035991673991945e-06
3.421124047085992e-07
1.487531920490783e-07
9.895476232442938e-08
8.711413891155706e-08
8.452178038454281e-08
8.400039020346542e-08
8.390427232720557e-08
8.388805705028531e-08
8.388550646070519e-08
8.388507171037611e-08
8.38849413180614e-08
8.388483791225728e-08
8.388472632531686e-08
8.388462623125418e-08
8.38845264251913e-08
8.388442465249522e-08
8.388432414730192e-08
8.388422601529388e-08
8.38841318476188e-08
8.388404205815553e-08
8.388395088310987e-08
8.388387688841441e-08
8.388380935863161e-08
8.388373968137738e-08
8.388368868801427e-08
8.388362377864943e-08
8.38835836175458e-08
8.388356302752536e-08
8.388353955569085e-08
8.388352386457468e-08
8.388351762621766e-08
8.38840443023144e-08
8.41592776298152e-08
1.694089341916322e-07
1.842114157987617e-05
0.002317077167431977
6.136585799911236e-08
1.704860364123532e-06
1.124279172457945e-05
3.953770495266914e-05
0.0001006281320584144
0.0002105357924875393
0.0003844557826454856
0.0006322692564759068
0.0009549023852320174
0.001344225937284819
0.001785747452358536
0.002261205854181816
0.002750028435063181
0.003231005864790621
0.003685222065451116
0.004099114592316448
0.004465798477231223
0.00478413478718203
0.005056671237333602
0.005287811903453257
0.005482515848275595
0.005645616353895234
0.005781503371209714
0.005893979502948928
0.005986249154638097
0.00606096067775195
0.006120275963799791
0.006165941599042688
0.006199355205700063
0.006221624305538005
0.006233616993586506
0.006236004887024943
0.006229299347360921
0.006213882195454976
0.006190032101643827
0.006157947796158188
0.006117769162794606
0.006069597093678644
0.006013513064469871
0.005949599133052067
0.005877720723629671
0.005797437161172534
0.005708079294211135
0.005608850010754703
0.005498894993637588
0.005377342870134179
0.005243328808104737
0.005096013920668921
0.004934615538240386
0.00475846676491701
0.004567122447487811
0.004360511984463273
0.004139095125426118
0.003903915198380761
0.003656432663213871
0.003398163819310791
0.003130477080206371
0.002854900513391723
0.002573916254033725
0.002291884211568747
0.002015019846803673
0.001748904122527915
0.00149102626903044
0.001236705513591364
0.0009878562003164996
0.0007504883949991066
0.0005334725017445966
0.0003456215940753617
0.0001944421295119293
8.779625078532954e-05
2.892958873658823e-05
6.982892094485391e-06
1.457853407711891e-06
3.314076421530384e-07
1.178705293390472e-07
7.844898257278933e-08
7.130510740108101e-08
7.004269378366862e-08
6.982742925672926e-08
6.979174414203733e-08
6.978518773868455e-08
6.978296488935356e-08
6.978126142024968e-08
6.977956052967976e-08
6.977775337696027e-08
6.977579887039823e-08
6.977372867940791e-08
6.977157720563289e-08
6.976936193376997e-08
6.97670943113876e-08
6.976479045366539e-08
6.976246993635794e-08
6.976013992388372e-08
6.975782219409968e-08
6.975560329137335e-08
6.975343312617245e-08
6.975129400463942e-08
6.974923379837903e-08
6.974768393915093e-08
6.974637324845352e-08
6.974532728378361e-08
6.974461914365319e-08
6.974432420890445e-08
6.974719030285078e-08
7.102124721530746e-08
4.025891058767462e-07
5.65681539600641e-05
0.00487418691780637
2.889760102277715e-07
8.028193461134545e-06
5.292556335779956e-05
0.0001856853321583418
0.0004681602355993695
0.0009544183852681114
0.001651283635541979
0.002487255170256466
0.003344771367090787
0.004132140662236299
0.004815724062441074
0.005400848384580008
0.005892729763892079
0.006301266297961027
0.006638363300432099
0.006915796077347351
0.007144119144940481
0.007332273183292022
0.007487587606346428
0.007615947659672604
0.007722011784494253
0.0078094263385549
0.0078810166246097
0.007938956854711245
0.007984919187542289
0.008020191896801967
0.008045765436088105
0.008062395643370237
0.008070651264276599
0.008070950324675421
0.008063588331770035
0.008048760339670918
0.008026578331601329
0.007997084975684103
0.007960264512066556
0.007916051252673117
0.007864335883698512
0.007804969522629233
0.007737765267345359
0.007662496902327446
0.007578894731256574
0.007486639983568619
0.007385359746281316
0.007274623414279971
0.007153940573560604
0.007022759739243385
0.006880467222349991
0.006726385305542899
0.006559769031902429
0.006379801583948333
0.006185590367465765
0.005976170819217367
0.005750533416053472
0.005507698938979694
0.005246867965852317
0.004967645388058877
0.004670280598137401
0.004355780350961376
0.004025856252100724
0.003682886579818048
0.003329848420909565
0.00297007316024761
0.002607009318936864
0.002244915517290969
0.001890614120818271
0.00155362995039683
0.001238570983824476
0.0009416585797575053
0.000666475684240922
0.0004247906177366079
0.0002289578471718278
9.492732301108886e-05
2.722342815248838e-05
5.50529903168226e-06
9.539618391400214e-07
1.926970864292754e-07
7.849327820301285e-08
6.264796621875432e-08
6.059473992705244e-08
6.034341065770645e-08
6.03129736730419e-08
6.0308057706159e-08
6.030586042323886e-08
6.030384736020036e-08
6.030173880742558e-08
6.029950971709902e-08
6.029716822586781e-08
6.029472935602414e-08
6.029220443362158e-08
6.028960305693367e-08
6.028693842833799e-08
6.028422729446125e-08
6.028147662510361e-08
6.027871298376195e-08
6.027609665153161e-08
6.027349364532808e-08
6.027089661946016e-08
6.026836631656461e-08
6.026631001713184e-08
6.026451339755937e-08
6.026304671723301e-08
6.026201169245122e-08
6.026152341481065e-08
6.02691122650057e-08
6.394798545593606e-08
1.049150749640124e-06
0.0001588846968429058
0.0109499442131689
2.897609040120671e-07
8.050015949296397e-06
5.307075295417371e-05
0.000186211353772163
0.0004695094694027676
0.0009566317006806587
0.00165161181309899
0.002477396368771441
0.003313670662641161
0.00407317660006655
0.004728859105660805
0.005286613636789203
0.005752873592383243
0.006138343778098488
0.006455330506448941
0.006715706807459284
0.006929941746577274
0.007106816781464268
0.007253491154107506
0.007375718215325276
0.007478100332993681
0.007564319692765174
0.007637322272501489
0.007699440796967452
0.007752435855631816
0.007797542236259477
0.007835496665181118
0.007866700879828955
0.007891485620133145
0.007910119907897454
0.007922819174922152
0.007929752496506065
0.007931049191632334
0.007926805045366749
0.007917088403501735
0.007901946389040274
0.007881411497904165
0.0078555088500639
0.007824264408011958
0.007787714468020835
0.007745817207687468
0.007698344298410075
0.007644879205803081
0.007584817993519474
0.007517423955419126
0.007441860906945291
0.007357212783095829
0.007262495754936192
0.00715666694230898
0.007038630261133495
0.006907237028654309
0.006761278945466694
0.006599472175659495
0.006420431781238394
0.006222637872223637
0.006004403213196535
0.005763876753738303
0.005499175813781517
0.005208685735417837
0.004891357769541956
0.004546960567051618
0.004176432687815501
0.003782397015307952
0.003369727993948135
0.002945449264448903
0.002517943693434389
0.002096349781392208
0.001690827003710887
0.001313591742384496
0.0009694907148961637
0.0006581469168398024
0.0003879519156465268
0.0001808906449682303
5.846954087386982e-05
1.204350835999339e-05
1.846375483633975e-06
2.858758428588859e-07
8.106371799463968e-08
5.655353350752687e-08
5.385113481580603e-08
5.357447061764801e-08
5.354655926571272e-08
5.354214942948065e-08
5.35396956478113e-08
5.353730561065117e-08
5.353482201754629e-08
5.353222941832988e-08
5.352953630540306e-08
5.352675295701053e-08
5.352388911525829e-08
5.35209572635166e-08
5.351797586094904e-08
5.3514955027367e-08
5.351191923029299e-08
5.350900341172088e-08
5.350610685941095e-08
5.350322761722762e-08
5.350042437423458e-08
5.349805032495128e-08
5.349598497810199e-08
5.349430602959756e-08
5.349312395969262e-08
5.349257669929104e-08
5.351756267719725e-08
6.912198891689968e-08
5.418427169705237e-06
0.0007382944229868476
0.03142199658097052
2.514032668470239e-07
6.984406386349087e-06
4.604927205068267e-05
0.0001616593481258098
0.0004083939502413959
0.0008362341352949742
0.0014570203703242
0.002212889951965177
0.002998197762679787
0.003725139212736389
0.004358884943702367
0.004902841337818445
0.005361270865615042
0.005742771116538703
0.006058128447831912
0.006318239077441478
0.006532998685727254
0.006710893556659998
0.006858977672065866
0.006983025310588634
0.007087738732162029
0.007176943622245828
0.007253727911689471
0.007320479414638352
0.007378921135659078
0.007430064659572386
0.007474472969164094
0.007512616922390764
0.007544887686675061
0.007571607080550607
0.007593036091997207
0.007609381895292589
0.00762080365091438
0.007627417329929684
0.007629299763974617
0.007626492085991823
0.007619002695280309
0.007606809851860541
0.007589863978038718
0.007568089716700126
0.007541387757975191
0.007509636784922696
0.007472696330397716
0.007430411305640176
0.007382618879425084
0.007329158172763158
0.007269883476383966
0.00720468187795597
0.007133079055246306
0.007054246357079874
0.006967022426942557
0.006870004737807185
0.006761621768042863
0.00664017818048887
0.00650387448799743
0.006350805376584659
0.006178946887439103
0.005986145528760023
0.005770118591882623
0.005528464723446371
0.005258679953115115
0.004958196292978689
0.004624542940707136
0.004255939728552846
0.003852550442155349
0.003418279679670556
0.002961713010622465
0.002494904031432966
0.002031886192701354
0.001588172252388364
0.001183141304159838
0.0008221401613255841
0.0005025316321357143
0.00024346708384776
8.022044797259598e-05
1.566994034073114e-05
2.079767552660734e-06
2.718390298951268e-07
7.091093977928267e-08
5.056406084654404e-08
4.866297800431985e-08
4.849721695430906e-08
4.848194795856148e-08
4.847861952770051e-08
4.847606992326181e-08
4.847346660925819e-08
4.847075264399379e-08
4.84679307520642e-08
4.846500618013402e-08
4.846199837127506e-08
4.845891782950543e-08
4.84557789311545e-08
4.845259380107202e-08
4.844938572496256e-08
4.84462725863055e-08
4.84431775186771e-08
4.84401041056408e-08
4.84371106242018e-08
4.843451519408379e-08
4.843226979570546e-08
4.843044479782164e-08
4.842915847712443e-08
4.842856205409343e-08
4.851337467035582e-08
1.171646389559413e-07
2.681280344867472e-05
0.002301552750100615
0.05762338306511534
2.306925579041396e-07
6.409042514680502e-06
4.225781810433515e-05
0.0001483940003167145
0.0003752928570831303
0.0007705817803961813
0.001349477143664998
0.002063865904255436
0.002816743961240876
0.003521545482514727
0.004140123687858842
0.004672795910174719
0.005123500229056516
0.005499828822251636
0.005811726813489893
0.006069502839516058
0.006282671381373391
0.006459482343108868
0.006606849105798362
0.006730467300567995
0.006835000848109594
0.006924264058682767
0.007001351922601926
0.007068670634351675
0.007127966463048955
0.007180257189874406
0.007226114819545253
0.007266021063907672
0.007300379541262458
0.007329525935765268
0.007353736347406771
0.007373234125594353
0.007388195459066504
0.007398753955930476
0.007405004411052533
0.007407005926401512
0.007404784524019289
0.007398335370858581
0.007387624719261804
0.007372591655397208
0.007353149735258755
0.007329188572007701
0.007300575438094588
0.007267156940476769
0.007228760803342674
0.007185197763864959
0.007136263542832043
0.007081740783598174
0.007021400745886124
0.006955008263565785
0.006882332878486955
0.006803169248491495
0.006716836381494551
0.006622188639220741
0.00651769909506846
0.006401573457606596
0.00627182412919963
0.006126301733760599
0.005962689780111965
0.005778472341099825
0.005570889136186526
0.005336898597211361
0.005073178896379271
0.004776210085562009
0.00444249058225562
0.004068984777483534
0.003654357058896622
0.003201927948019352
0.002721889056446644
0.002230385506210885
0.001747534160770029
0.0012975067474446
0.0008997619991536643
0.0005505999048082556
0.0002619619274735745
8.089591480682409e-05
1.387384283858673e-05
1.574963494073974e-06
1.882200035002798e-07
5.689179645570263e-08
4.553320158693091e-08
4.462572618047913e-08
4.455686335536093e-08
4.454994278250079e-08
4.454713758299895e-08
4.454447990478851e-08
4.454172301194975e-08
4.453885687771843e-08
4.453588488902407e-08
4.453282873996596e-08
4.45296952541433e-08
4.452649837838955e-08
4.452325115438035e-08
4.451997551126693e-08
4.451677616693343e-08
4.451359243443509e-08
4.451043119805993e-08
4.450734888301797e-08
4.450463414433878e-08
4.450227945730446e-08
4.450035875184709e-08
4.449899761922898e-08
4.449837902557462e-08
4.488226119143267e-08
4.21893618264889e-07
0.0001305855293364393
0.00629539020241768
0.09905793011058218
2.125345296198464e-07
5.904591682268948e-06
3.893326256614413e-05
0.0001367542128866775
0.0003461836621878772
0.0007125731129562229
0.001253828476419699
0.001930600681646774
0.002654408011227597
0.003340483146929904
0.003947354147163304
0.004471796852496934
0.004917494736683636
0.005291025683379099
0.005601501780938586
0.00585867015529706
0.006071698803701437
0.006248637130466383
0.006396290437670791
0.006520302842036379
0.006625321048144876
0.006715163074187341
0.006792939965934571
0.006861078811503264
0.00692134856034948
0.006974765773440787
0.007021918038660387
0.007063302274791869
0.007099337083205541
0.007130373030842147
0.007156701103850012
0.00717855960246039
0.007196139752169472
0.00720959026696206
0.007219021063150049
0.007224506290155238
0.007226086818297668
0.007223772303074956
0.007217542929941728
0.007207350932547246
0.007193121966400468
0.007174756406358735
0.00715213063725891
0.007125098408313824
0.00709349231262639
0.007057125448743038
0.007015793316927372
0.006969275999694966
0.006917340672977759
0.006859744489375686
0.006796237839091214
0.006726567908630219
0.006650482272477424
0.006567739992751224
0.006477788295136111
0.006379545225557321
0.006271499475367818
0.006151827262530389
0.006018468942158223
0.005869153830979927
0.005701380297740476
0.005512361859701047
0.005298954877296349
0.005057588595305473
0.004784228838179154
0.00447443344256983
0.004123623525696811
0.003727890108337331
0.003286498082464338
0.002805623219758126
0.002300254220808131
0.001793364264329242
0.001316538774014628
0.000898281352865324
0.0005331584416893686
0.0002352581819437071
6.210114415253342e-05
8.586498059954333e-06
8.295507954585776e-07
1.048075631302197e-07
4.609970154129859e-08
4.173291239391894e-08
4.143127537484507e-08
4.140992271477882e-08
4.14062846791364e-08
4.140357101707469e-08
4.140079984937483e-08
4.139792127616952e-08
4.139493560958577e-08
4.139186265901236e-08
4.138871049133506e-08
4.138549274151531e-08
4.138222307021368e-08
4.137892233954704e-08
4.137568499596163e-08
4.137246191460946e-08
4.136926194527785e-08
4.136613882569948e-08
4.136335679710558e-08
4.136093440316086e-08
4.135894681549698e-08
4.13575255616193e-08
4.13571930150776e-08
4.444847630827346e-08
2.837544770922659e-06
0.0005434476173137809
0.01456036006244511
0.1523293302633823
1.960740170740439e-07
5.447297848284936e-06
3.591922428412608e-05
0.0001261958621420616
0.0003197298934041161
0.0006596272909170092
0.001165917661839966
0.001807231086255178
0.002503584835280389
0.003172485106833032
0.003769258707826268
0.004286975199844278
0.004729032868108994
0.005100971316753933
0.005411063634540016
0.005668501572052989
0.005882119680568151
0.006059782556691868
0.006208202931408864
0.006332987201176959
0.006438776174378891
0.006529400133906397
0.00660799145482757
0.006676998564692616
0.006738211548166592
0.006792639103232162
0.006840888247107499
0.006883474029567309
0.006920832229798895
0.006953329931713328
0.006981274220986065
0.007004919262741521
0.007024472041114637
0.007040097001377847
0.007051919796485702
0.007060030306119398
0.007064485068590888
0.007065309244184963
0.007062498212278541
0.007056018892936278
0.007045810872865675
0.007031787402959404
0.007013836336489191
0.00699182108028054
0.006965581624133445
0.006934935710589318
0.006899680204830624
0.006859592722608143
0.006814433569868768
0.006763948038685499
0.006707869090222809
0.006645920435722218
0.006577820000785998
0.006503283732469255
0.006422029557061847
0.006333787935043182
0.006237799163482581
0.006132807771049765
0.006017178302084131
0.005888996251881645
0.005746107758380815
0.005586104972142903
0.005406265322355195
0.005203455799688064
0.004974017842130987
0.004713658820296183
0.004417402914772589
0.004079720005283609
0.003695131585237489
0.003260484440565042
0.002779274100043957
0.002265424730909166
0.001744838507290697
0.00125692229734471
0.0008305894015112867
0.0004607727435042288
0.0001755313338464016
3.569358047608932e-05
3.765971714899571e-06
3.268414781973315e-07
5.88509942812969e-08
4.012209918475002e-08
3.891458838050488e-08
3.884062174926098e-08
3.88341781599304e-08
3.883133388721758e-08
3.882856534921326e-08
3.882569592774644e-08
3.882271918211353e-08
3.8819653049849e-08
3.881650639815826e-08
3.881329250323138e-08
3.881002533229615e-08
3.88067248417381e-08
3.880347728227338e-08
3.880024213380422e-08
3.879702956103916e-08
3.87938905743148e-08
3.879106953911581e-08
3.878860409945023e-08
3.878656739692752e-08
3.878509167150776e-08
3.879815013993585e-08
6.822074808898567e-08
1.906486780978211e-05
0.001761413849898139
0.02822082408236976
0.2109348087236385
1.837895503093021e-07
5.106019079516376e-06
3.36697350077698e-05
0.0001183129825227281
0.0002999511413437126
0.0006198848446694603
0.001099422686898932
0.00171287892759103
0.002386797752335544
0.003040969061720099
0.003628670089112811
0.004140182693414454
0.004578637107048557
0.004948758325496842
0.005258144732436973
0.005515522791383309
0.005729432629839524
0.005907563319805512
0.006056528682238006
0.006181883443204161
0.006288245471288079
0.006379439896755957
0.006458605576835614
0.006528205143660176
0.006590046888000138
0.006645150350228137
0.00669413673319888
0.006737534590701377
0.00677579272296416
0.006809290930118374
0.006838348865716792
0.006863233244217553
0.006884163683439592
0.006901317423378969
0.00691483312369154
0.006924813907764267
0.006931329793094116
0.006934419625293555
0.006934092616243331
0.006930329574870935
0.00692308390816269
0.00691228245794543
0.006897826241641571
0.006879591169650523
0.006857428806772781
0.006831167245130607
0.00680061215819647
0.006765548109163672
0.006725740190584505
0.006680936073932328
0.00663086854753367
0.006575258618598665
0.006513819250002691
0.006446259795633723
0.006372291192236745
0.006291631969474045
0.006204015011344562
0.006108698833710871
0.006004483053307173
0.005889815611292035
0.005762883094827834
0.005621639882960846
0.005463781175002632
0.005286665751734227
0.005087196109869904
0.004861666536030523
0.004605598506108317
0.004313609963621504
0.003979439917720472
0.003596471245354049
0.0031601802290528
0.002673202771700482
0.00215039905910777
0.001622402300706604
0.001135432768196266
0.0007108773968471885
0.0003492486421268951
0.0001038001894845954
1.470800501544441e-05
1.20649966729863e-06
1.140108486173699e-07
4.13672182775333e-08
3.695018126250767e-08
3.67004218239074e-08
3.668513453239416e-08
3.668189819221002e-08
3.667913232539196e-08
3.667628358180387e-08
3.667332853615494e-08
3.667028305393102e-08
3.666715654994986e-08
3.666396195128292e-08
3.666071332886792e-08
3.665742985275248e-08
3.665419108393532e-08
3.665096305681698e-08
3.664775682952734e-08
3.664462081406644e-08
3.664178271932093e-08
3.663929536471563e-08
3.663722929488712e-08
3.663571409528517e-08
3.684379943079016e-08
2.720612761821986e-07
9.254731738387726e-05
0.004429067438522327
0.0465796585437208
0.2672870326638149
1.71359767410351e-07
4.760702051356624e-06
3.139346657982653e-05
0.0001103328305139063
0.000279898463527958
0.0005794468013180943
0.001031350424132009
0.001615654588606557
0.002266068121738494
0.002905285761575184
0.003484446683793512
0.00399054312365879
0.004426381665943449
0.004795735196723918
0.005105428412392012
0.005363668793003716
0.005578681779009598
0.005757981457675324
0.005908094588047188
0.006034541352986398
0.006141935418449873
0.006234114539249473
0.006314237625915825
0.006384784535421992
0.006447580336771543
0.006503627023019191
0.006553566503191628
0.006597945838357449
0.006637230656228774
0.006671816329354666
0.006702037170988455
0.006728173918756082
0.006750459796103046
0.006769085402690739
0.00678420264315494
0.006795927867112517
0.006804344363075197
0.006809504324917581
0.006811430391250731
0.006810116844636793
0.006805530545991473
0.006797611667225491
0.0067862742866694
0.006771406916003235
0.006752873022322746
0.006730511608505517
0.006704137917738737
0.006673544332601609
0.006638501544203943
0.00659876007029283
0.006554052202660804
0.006504094462438434
0.006448590635630485
0.006387235448964116
0.006319718925648306
0.006245731432006063
0.006164969389699875
0.006077141581894892
0.005981457042638464
0.005876693635183194
0.005761312276485856
0.005633540921665981
0.0054913921011604
0.00533261962282439
0.005154619376142641
0.004954279655066796
0.004727787843381155
0.004470408927181858
0.004176284322555643
0.0038383986481224
0.003449186670762934
0.003003658198825625
0.00250548188899339
0.001972621086731108
0.001443595687645396
0.0009677151718455259
0.0005542207265332817
0.0002214118296527906
4.517441497986068e-05
4.269649998919139e-06
3.077647901744506e-07
5.054936927525252e-08
3.569213891196853e-08
3.490025865700852e-08
3.485908848771171e-08
3.485473837100155e-08
3.485195312908852e-08
3.484913087495023e-08
3.484620488505645e-08
3.484318819921193e-08
3.484009062971924e-08
3.483692482979086e-08
3.483370490154905e-08
3.483044940156758e-08
3.482723240456633e-08
3.482402514946479e-08
3.482083943573158e-08
3.481772137367336e-08
3.481488427687089e-08
3.48123935568959e-08
3.481032341853507e-08
3.480949948594025e-08
3.671138198867109e-08
1.516376648814619e-06
0.0003205078870117098
0.008929054895183102
0.06731529934400675
0.3148507871588859
1.613068870305312e-07
4.48141824881601e-06
2.955240417231784e-05
0.0001038766241429959
0.0002636573115420359
0.0005465962928711281
0.0009757189304055487
0.001535505895911862
0.002165609680131269
0.002791541246618629
0.0033629664046717
0.003864125768241103
0.004297519930479245
0.004666097614119192
0.004976003916538256
0.005234980423055292
0.005450963193619782
0.00563129980357919
0.005782428843487653
0.005909829599225956
0.006018102419766957
0.006111087725482114
0.00619195646434609
0.006263205426067742
0.006326678624837235
0.006383389119449172
0.006433995500019889
0.006479059934283708
0.006519061897623317
0.006554409635307022
0.006585449615273188
0.006612474237260583
0.006635728087765884
0.006655412994231578
0.006671692090381835
0.006684693067710541
0.006694510757262738
0.006701209160909482
0.006704823031949711
0.0067053590905389
0.006702796947705448
0.006697089800081087
0.006688164955865487
0.006675924256606196
0.006660244456076154
0.006640977615993696
0.006617951582393502
0.006590970612695958
0.006559816230818779
0.006524248395139994
0.006484007071140353
0.006438814307228388
0.006388376918501536
0.006332389887186998
0.006270540590755913
0.006202513970148215
0.00612799875291134
0.006046694855508368
0.00595813721433889
0.005861376865324
0.005755089156509534
0.005637689176328472
0.005507397677322655
0.00536224017883099
0.005199981840064622
0.00501800079915805
0.004813102818378426
0.004581281791451479
0.004317442699059293
0.004015150286330571
0.003666605882421526
0.003263594909485211
0.002801788656771727
0.002287821923680212
0.001745527005926448
0.001224170649695225
0.0007681589093409487
0.0003786930022994819
0.0001079896612892201
1.350818193743863e-05
9.301656752295198e-07
8.267789128631447e-08
3.577530138816388e-08
3.339894719873852e-08
3.328578201161498e-08
3.327845153574797e-08
3.327558161020371e-08
3.327278798569702e-08
3.326989589546615e-08
3.32669134994143e-08
3.32638508574799e-08
3.326072042581719e-08
3.325753631047868e-08
3.325431661475955e-08
3.32511308848256e-08
3.32479545616127e-08
3.324480012243342e-08
3.324171225781402e-08
3.323889134591489e-08
3.323641172629337e-08
3.323437032614829e-08
3.324112319830055e-08
4.522659971461097e-08
7.251958417704727e-06
0.0008501950343346341
0.01513682957480694
0.08782956407540585
0.3506930535356321
1.519407286934521e-07
4.221212014194156e-06
2.7837022742533e-05
9.785935998487906e-05
0.00024850364470063
0.000515857038963954
0.0009233782049111645
0.001459557459749837
0.002069815249075742
0.002682703819797339
0.003246644667968212
0.003743134147697953
0.004174354161455106
0.004542436116991736
0.004852844349538037
0.005112846789369858
0.005330080198972144
0.00551171789398102
0.005664105735803477
0.005792680250722497
0.005902028476183408
0.00599599451787498
0.006077762276689085
0.006149844161731401
0.006214102938421768
0.006271552103126677
0.006322869178075329
0.006368633038971105
0.006409338146080012
0.006445406406891344
0.006477196965586258
0.006505014193271942
0.006529114178190116
0.006549709977633269
0.006566975849795849
0.006581050645141817
0.006592040504436503
0.006600020942280434
0.006605038452142232
0.006607111770105267
0.00660623282729833
0.006602367448401548
0.006595455853172321
0.006585413020067517
0.006572128968960605
0.006555469017457155
0.006535274068144809
0.006511360989220684
0.006483523151708982
0.006451531090739479
0.006415133447474734
0.006374058396804382
0.006328015559441982
0.006276698488420162
0.006219787816340365
0.006156955138703428
0.006087867687632791
0.006012193819177424
0.00592960928512915
0.005839484127258048
0.005740732429272551
0.005631931604833324
0.005511437204589463
0.005377431962440301
0.005227904998462017
0.005060562653732329
0.004872671969103614
0.00466083720733216
0.004420712070235915
0.004146667667856722
0.003831504048162991
0.003466503200962827
0.003043164172490492
0.002559281463898455
0.002026977541019838
0.001482449396535677
0.0009837432610594256
0.0005509226425333114
0.0002060310107739605
3.586199133010067e-05
2.759450042224091e-06
1.785674111410867e-07
3.899867008326159e-08
3.222085973258046e-08
3.191600732570032e-08
3.190104115060772e-08
3.18979228921627e-08
3.189515488317051e-08
3.189229926787173e-08
3.188935438910528e-08
3.188633035551982e-08
3.188323950334975e-08
3.188009594839251e-08
3.187691748614961e-08
3.187376990161915e-08
3.187063225716015e-08
3.186751757719313e-08
3.186446978911757e-08
3.186167871196396e-08
3.185921936755739e-08
3.185724796058562e-08
3.190285985203303e-08
8.626772656076793e-08
2.650929265290433e-05
0.001825889679396437
0.0224626806317492
0.1058850328761699
0.3738161863778566
1.449128494932089e-07
4.02596655885075e-06
2.654985944893497e-05
9.334347769269689e-05
0.0002371235609819364
0.0004927302591134405
0.0008838490004890128
0.001401847729748733
0.00199645804930517
0.00259872953743019
0.003156357711958887
0.003648797129277961
0.004077969194242912
0.004445374298421585
0.004755941298799025
0.00501655718827666
0.005234612475481801
0.005417132527114787
0.005570380336794582
0.005699749683260475
0.00580980854351115
0.005904396020147794
0.005986700679606007
0.006059248921811082
0.006123922361064888
0.006181762891893972
0.006233460092511254
0.006279603693665022
0.006320698031180988
0.006357174106439696
0.006389399571906531
0.006417686899963846
0.006442300034700629
0.006463459787770401
0.006481348197226262
0.006496112029943776
0.006507865575556806
0.006516692897362938
0.006522649602429312
0.006525764159286911
0.006526038878987089
0.006523450623622883
0.006517951295285253
0.006509468157448795
0.006497904039705384
0.006483137475075668
0.006465022820790352
0.006443390416959086
0.006418046848609597
0.006388775491072692
0.006355337337551926
0.006317472074010046
0.006274899595487565
0.006227322073830351
0.006174426696737023
0.006115889208331091
0.006051378395800681
0.00598056168400529
0.005903112028595307
0.005818615385709412
0.005726164869004162
0.005624476085632539
0.00551200947098805
0.005387056271763174
0.005247755766918614
0.005092043639588866
0.004917530128772343
0.004721305552004029
0.004499669427167168
0.004247783915624636
0.003959283684112587
0.003625987453494784
0.003238250307889663
0.002788406008690598
0.002278921133706378
0.001731299169609232