/*--------------------------------*- C++ -*----------------------------------*\
| =========                 |                                                 |
| \\      /  F ield         | OpenFOAM: The Open Source CFD Toolbox           |
|  \\    /   O peration     | Version:  v1812                                 |
|   \\  /    A nd           | Web:      www.OpenFOAM.com                      |
|    \\/     M anipulation  |                                                 |
\*---------------------------------------------------------------------------*/
FoamFile
{
    version     2.0;
    format      ascii;
    class       volScalarField;
    location    "0.00000125";
    object      nut;
}
// * * * * * * * * * * * * * * * * * * * * * * * * * * * * * * * * * * * * * //

dimensions      [0 2 -1 0 0 0 0];


internalField   nonuniform List<scalar> 
44064
(
6.843647752938889e-13
1.035395809997888e-10
1.941515436113968e-09
1.391991190773728e-08
5.92748738750207e-08
1.785100317767274e-07
4.102360463288866e-07
7.648500583928013e-07
1.154883299969623e-06
1.611272602419863e-06
2.148036877153758e-06
2.768916578540709e-06
3.475215201312788e-06
4.267406004653496e-06
5.145650162155804e-06
6.110061396523454e-06
7.160883650321902e-06
8.298620895040728e-06
9.524129970860816e-06
1.083868088250817e-05
1.224398748462581e-05
1.374221099819724e-05
1.533593870826037e-05
1.702814014981185e-05
1.882210294325074e-05
2.072135072510722e-05
2.272954543961507e-05
2.485037567860967e-05
2.708743213425629e-05
2.944407034181814e-05
3.192326009604163e-05
3.452742050470792e-05
3.725824040749405e-05
4.011648702436623e-05
4.310181277439663e-05
4.62125824453524e-05
4.944575931589954e-05
5.279690237534035e-05
5.62603179589745e-05
5.982933806646886e-05
6.349649818924873e-05
6.725323227413293e-05
7.108876723751746e-05
7.498775507797673e-05
7.89258539508024e-05
8.286298563374859e-05
8.673652579057393e-05
9.046252863718237e-05
9.396259449327224e-05
9.724270156333111e-05
0.0001005435815760244
0.0001045320491669191
0.0001103649520429393
0.0001191764737674114
0.0001299773224438316
0.0001346629939455375
0.0001303887250982156
0.0001242332895792054
0.0001160413489362859
0.0001058074267899855
9.371221284917023e-05
8.01589391479809e-05
6.575474381812303e-05
5.125106439095198e-05
3.747039286026169e-05
2.519125029769405e-05
1.513229905629482e-05
7.857283855243948e-06
3.42150432125482e-06
1.263568540610412e-06
4.155990713032983e-07
1.296212954005901e-07
4.281917587280259e-08
1.861955787085878e-08
1.238659186130108e-08
1.090459221797192e-08
1.058009622522123e-08
1.051483630143996e-08
1.050281410045193e-08
1.050079057245886e-08
1.050047787406565e-08
1.050043081258746e-08
1.050042144672673e-08
1.050041634369116e-08
1.050041121385904e-08
1.050040663765062e-08
1.050040208049154e-08
1.050039743479067e-08
1.050039284663971e-08
1.050038836689434e-08
1.050038406814957e-08
1.050037996945128e-08
1.050037580842153e-08
1.050037242997569e-08
1.050036934769305e-08
1.050036616819134e-08
1.050036384029327e-08
1.050036087898873e-08
1.050035904564785e-08
1.050035810567808e-08
1.050035703477331e-08
1.050035631874338e-08
1.050035605522935e-08
1.050042151733251e-08
1.053486980951598e-08
2.120378730506e-08
2.241033383209002e-06
6.425785427539119e-05
5.372704375345369e-14
8.139812015453716e-12
1.536377903292365e-10
1.116504988930151e-09
4.836226832085265e-09
1.505239232168155e-08
3.69565249942152e-08
7.580446532838537e-08
1.357182127791073e-07
2.200665126106814e-07
3.33064188763678e-07
4.810951572650619e-07
6.72786431348256e-07
9.177743723572916e-07
1.224971495477693e-06
1.601508270282015e-06
2.053205871291487e-06
2.58581336839e-06
3.205342779659993e-06
3.918915778938358e-06
4.734137800797217e-06
5.658914272902798e-06
6.701979065049119e-06
7.87219812880794e-06
9.178804837369975e-06
1.063146399078376e-05
1.22403646861926e-05
1.401628364894743e-05
1.597060067060183e-05
1.811528298742021e-05
2.046284081047472e-05
2.302625662420411e-05
2.581888361944222e-05
2.885431723988356e-05
3.21462186940127e-05
3.570807837138985e-05
3.955292257681802e-05
4.369289150538132e-05
4.813872679830338e-05
5.289900522848855e-05
5.778050500187991e-05
6.268158984290163e-05
6.76451083840797e-05
7.2697117578445e-05
7.784453572534064e-05
8.307512794154944e-05
8.835968150244217e-05
9.365698965340041e-05
9.892254778517322e-05
0.000104120852223115
0.000109237906211873
0.0001142849100584612
0.0001192793259934694
0.000124194780750732
0.0001288993890159279
0.0001331489200797107
0.0001366976668870518
0.0001394896638860944
0.0001418176705736471
0.000144286694029247
0.0001471628999078706
0.0001483366159780261
0.0001388090386326375
0.0001232119954401096
0.0001045524673977785
8.384502340326059e-05
6.26950317626508e-05
4.278742943755564e-05
2.546059289215787e-05
1.215924082232691e-05
4.184769127114391e-06
1.029923704334815e-06
2.161358955988488e-07
4.918144234210654e-08
1.749550738363517e-08
1.164454802350353e-08
1.058434265017717e-08
1.039710906495105e-08
1.03653094730796e-08
1.036018251369767e-08
1.035939588767972e-08
1.035926846817339e-08
1.035923300330913e-08
1.035921015585951e-08
1.035918802372068e-08
1.035916292762336e-08
1.035913558424927e-08
1.035910739063132e-08
1.035907881527042e-08
1.035904996235283e-08
1.035902101121935e-08
1.03589923372676e-08
1.035896359756582e-08
1.035893468752225e-08
1.035890797112706e-08
1.035888303967299e-08
1.035885930575394e-08
1.03588357100936e-08
1.035881782258877e-08
1.035880299729828e-08
1.035879082554012e-08
1.035878265478089e-08
1.035877920918168e-08
1.035917339497094e-08
1.054825355377356e-08
5.976098318546897e-08
7.638475326234533e-06
0.0001191021121062333
2.530015388784202e-13
3.831877740491035e-11
7.218552385714072e-10
5.219927700976923e-09
2.248738770046088e-08
6.994543729210897e-08
1.721704163220423e-07
3.522781156547874e-07
6.20406685688809e-07
9.706651488833906e-07
1.343640457445953e-06
1.777177409991648e-06
2.280613669159905e-06
2.858123733600162e-06
3.512741664402529e-06
4.246944822382888e-06
5.062949224109232e-06
5.96323036559437e-06
6.950385279087694e-06
8.027218538519596e-06
9.197094474644257e-06
1.046415966131485e-05
1.183399107525113e-05
1.331396632187786e-05
1.491252675843977e-05
1.663858306190613e-05
1.850157110313794e-05
2.051146099248593e-05
2.267873302613674e-05
2.501432517160677e-05
2.752955945749541e-05
3.023604963379248e-05
3.314558718644778e-05
3.626999608699833e-05
3.962093789546963e-05
4.320963840487963e-05
4.704649809314642e-05
5.114055020156476e-05
5.549875928237388e-05
6.012523872218394e-05
6.502065120785993e-05
7.018198998449993e-05
7.560242744384605e-05
8.127079834958642e-05
8.717062734045578e-05
9.327872686278636e-05
9.956336392473435e-05
0.0001059820155021528
0.0001124789087582187
0.000118983037959359
0.0001254083192747007
0.0001316588068414527
0.0001376422606199247
0.0001432921027398247
0.0001485882111389718
0.0001535540630945564
0.0001582075747326831
0.0001624506285319526
0.0001660887030267824
0.0001689021150163327
0.0001705431493601924
0.0001705078345418652
0.0001684516891222222
0.0001647835037966227
0.0001606461124638665
0.0001557490448267978
0.000141792728529773
0.0001136977779106172
8.470251277058793e-05
5.721095415373463e-05
3.309453473809336e-05
1.480162740081421e-05
4.493819353641502e-06
9.297113763390131e-07
1.619160683004896e-07
3.27324301503092e-08
1.333488164674339e-08
1.064335613186898e-08
1.029476535070725e-08
1.025230166972775e-08
1.024738334487864e-08
1.024681917400548e-08
1.024673469390865e-08
1.024669979671743e-08
1.024666869823624e-08
1.024663632380855e-08
1.024660214934085e-08
1.024656686800505e-08
1.024653081291987e-08
1.024649412505887e-08
1.024645698644379e-08
1.024641978341143e-08
1.024638216916027e-08
1.024634397011911e-08
1.024630855840249e-08
1.024627455618655e-08
1.024624144649063e-08
1.024620862311656e-08
1.024618170659736e-08
1.024615827817224e-08
1.024613889326471e-08
1.024612541746379e-08
1.024611926893238e-08
1.024737752599742e-08
1.087265053396112e-08
1.781252861261653e-07
2.234510608917278e-05
0.0002523650943919609
2.536891865945722e-13
3.842523187511321e-11
7.242466288165555e-10
5.249562680217129e-09
2.275901272492682e-08
7.154106052414306e-08
1.781662583331436e-07
3.67556255893098e-07
6.494189706562556e-07
1.008268519513581e-06
1.394021862330137e-06
1.843130706248662e-06
2.365053731218397e-06
2.963985545163344e-06
3.642610363155975e-06
4.403139093340851e-06
5.247729146790817e-06
6.17886760095957e-06
7.199889935283891e-06
8.315109594474167e-06
9.529332583710571e-06
1.084693883638628e-05
1.226938334076277e-05
1.378990999303715e-05
1.538389120670188e-05
1.706549391104802e-05
1.889040643126515e-05
2.087085117605637e-05
2.302003696871406e-05
2.535220347679629e-05
2.788266641593629e-05
3.062786022038803e-05
3.360537447897235e-05
3.683397929939646e-05
4.033363309590556e-05
4.412546386802611e-05
4.823171151637014e-05
5.267561372251041e-05
5.74812130596538e-05
6.267299034858707e-05
6.816733856100077e-05
7.384670544407933e-05
7.975973865498213e-05
8.594476256525094e-05
9.242733961073236e-05
9.921978568188231e-05
0.0001063219212956842
0.0001137220030848698
0.0001213959564171487
0.0001293036193003788
0.0001373832517562115
0.0001455457856348709
0.0001536690020527285
0.0001615925238649239
0.0001691170905382461
0.0001760169544186401
0.0001820829042280827
0.0001872219710680508
0.0001914133773537753
0.0001945898289925733
0.0001966786316266166
0.0001976469710123714
0.0001974608499181697
0.0001958562404308093
0.0001924740661444123
0.0001870537649129379
0.0001794029711731552
0.000169674558608618
0.0001564025985665892
0.0001274792975833626
9.134056511010766e-05
5.771909168971175e-05
2.942835753956301e-05
1.039588187473678e-05
2.25004921519793e-06
3.493562688539721e-07
5.419544505546595e-08
1.537172225792388e-08
1.072453589116186e-08
1.021240073009745e-08
1.016026541472036e-08
1.01553217622686e-08
1.015485580845261e-08
1.015478329649372e-08
1.015474188938654e-08
1.015470142939228e-08
1.015465937201484e-08
1.015461610877398e-08
1.015457193386572e-08
1.015452698269704e-08
1.015448137791656e-08
1.01544356329339e-08
1.015438950830173e-08
1.0154342732543e-08
1.015429866176328e-08
1.015425615736658e-08
1.015421467133038e-08
1.015417383786551e-08
1.015413887718199e-08
1.015410852594063e-08
1.01540837812914e-08
1.015406655887264e-08
1.01540592016266e-08
1.015875453109694e-08
1.312030183212655e-08
1.023744852621022e-06
9.96237542989707e-05
0.0007250030194636197
2.201071976891021e-13
3.33412580672172e-11
6.287416565710002e-10
4.563824332562658e-09
1.98352850330308e-08
6.262109051980673e-08
1.571738161940791e-07
3.281295751473871e-07
5.876575562123669e-07
9.326707194027558e-07
1.300666484683349e-06
1.726880226349569e-06
2.22300271343926e-06
2.793846484651232e-06
3.442564388815807e-06
4.171886176518624e-06
4.984655478269403e-06
5.884215829023725e-06
6.874657026933043e-06
7.96066338495638e-06
9.146347218625488e-06
1.043187538011006e-05
1.180587319116234e-05
1.323074052592085e-05
1.472386984954771e-05
1.634299348080616e-05
1.809884087326945e-05
2.000306582817781e-05
2.206827995787275e-05
2.430810592444477e-05
2.67372370193863e-05
2.937150151311514e-05
3.222793080893999e-05
3.532483038367324e-05
3.868185235706403e-05
4.232006829914543e-05
4.626204058642688e-05
5.053189027813821e-05
5.515535924846311e-05
6.015986387894512e-05
6.557453078199452e-05
7.143016410638451e-05
7.775906522261771e-05
8.45946848845944e-05
9.197109203453214e-05
9.992218717149991e-05
0.0001084805494313159
0.0001176755504140364
0.0001268314100405015
0.0001359326928132411
0.000145084268908765
0.0001543555776046223
0.0001637706413278714
0.0001732981009889305
0.000182844288966301
0.0001922528784895044
0.0002013097001261188
0.0002097487468990348
0.0002172538317656824
0.0002234550757304728
0.0002279315133966142
0.0002302500595364776
0.0002301007485321247
0.000227599779445717
0.0002231157797644644
0.0002169651775862653
0.000209331186374698
0.0001998916614916614
0.0001880809785564961
0.0001737658988480717
0.000155548072204405
0.0001186624040069934
7.752456169701365e-05
4.12931495010007e-05
1.519057057631526e-05
3.186626000621705e-06
4.310209625533549e-07
5.648238884427898e-08
1.473812049839247e-08
1.050983524091812e-08
1.011508099699011e-08
1.00810237866345e-08
1.007827306805713e-08
1.007803038645049e-08
1.007797211630984e-08
1.007792462501548e-08
1.007787599784652e-08
1.007782598693523e-08
1.007777453855301e-08
1.00777222438419e-08
1.007766937269175e-08
1.00776161903628e-08
1.007756255139332e-08
1.007750812468575e-08
1.00774562529195e-08
1.007740602326813e-08
1.007735687383532e-08
1.007730863235867e-08
1.00772662823441e-08
1.007722957485548e-08
1.007719975694283e-08
1.00771789004875e-08
1.007717094487506e-08
1.009476442499253e-08
2.437778121374795e-08
5.474832579617391e-06
0.0002595458928805328
0.001330847004424286
2.019750072305425e-13
3.059611383183315e-11
5.771650711691012e-10
4.193639884942723e-09
1.826185241650717e-08
5.785490258846707e-08
1.460529755581391e-07
3.073295390825994e-07
5.553646112102724e-07
8.886216555470854e-07
1.251185568789537e-06
1.666402174010878e-06
2.149422241573554e-06
2.705834853113116e-06
3.339029936211479e-06
4.051821569600571e-06
4.847066759802793e-06
5.728077052293083e-06
6.698878403372769e-06
7.764057842950397e-06
8.927546405514829e-06
1.018906526618391e-05
1.153606187409509e-05
1.292801586315337e-05
1.438430430431231e-05
1.596154309891974e-05
1.76697631248762e-05
1.951986177926203e-05
2.152362856224615e-05
2.369379211274913e-05
2.60440770305303e-05
2.858926726229178e-05
3.134527576144578e-05
3.4329220287274e-05
3.755950532216142e-05
4.10559101514917e-05
4.483968313408736e-05
4.893364210370115e-05
5.336228063907229e-05
5.815187919907476e-05
6.333061302922916e-05
6.892863304102379e-05
7.497810285319067e-05
8.151318744809903e-05
8.85699799027441e-05
9.618634528870859e-05
0.0001044016524812664
0.0001132563581603476
0.0001227914097960123
0.0001330470321315706
0.0001440603439510619
0.0001558617534921378
0.0001673989016890656
0.000178643343725021
0.0001897449519096612
0.0002007848950665745
0.000211746048186356
0.0002224967985810133
0.0002327880126807742
0.0002422599486144843
0.0002504576024491513
0.000256854526988935
0.0002608853705978262
0.0002619866275719061
0.000259653466415474
0.0002535777602957846
0.0002440068630427921
0.0002319660000782901
0.000218454737928107
0.0002034474553743359
0.0001862600568015283
0.0001660309652566639
0.0001358639414707737
8.884251551701238e-05
4.678405669413084e-05
1.640153625752629e-05
3.050872925896308e-06
3.5304939212768e-07
4.228512769562363e-08
1.278414092932337e-08
1.023232782878241e-08
1.002884575256201e-08
1.001383434992412e-08
1.00127706606506e-08
1.001265757654793e-08
1.001260220876384e-08
1.001254828806688e-08
1.001249301061488e-08
1.00124361041378e-08
1.001237820738403e-08
1.001231956737232e-08
1.001226046949919e-08
1.001220084852347e-08
1.00121403267053e-08
1.001208221245699e-08
1.001202577639613e-08
1.00119704382584e-08
1.001191614144312e-08
1.001186765225631e-08
1.001182540637825e-08
1.001179098215134e-08
1.001176684983712e-08
1.0011764296095e-08
1.009808970631677e-08
9.489365222121762e-08
2.742434001072791e-05
0.0005940235829966123
0.002289917044267507
1.860776073688248e-13
2.818895678859693e-11
5.318888545531896e-10
3.867372088127982e-09
1.686110870390646e-08
5.352552390766812e-08
1.356653480013201e-07
2.872523899494315e-07
5.230283349941743e-07
8.430502915944686e-07
1.20037455976729e-06
1.604249681353688e-06
2.07378841382134e-06
2.615471100856928e-06
3.233009044284276e-06
3.929399076202964e-06
4.707630425051463e-06
5.571119385366511e-06
6.523977472531981e-06
7.570851497282922e-06
8.715654587059804e-06
9.957839854181407e-06
1.128389707196129e-05
1.265072397666501e-05
1.408306457897965e-05
1.563433435896468e-05
1.731433539321576e-05
1.913371587434773e-05
2.110398976316997e-05
2.323757300381898e-05
2.554783328211991e-05
2.804914545011363e-05
3.0756952314367e-05
3.36878307299294e-05
3.685956316814255e-05
4.029121508426052e-05
4.400321860923577e-05
4.801746332050608e-05
5.2357394964668e-05
5.704812286150841e-05
6.211653158457028e-05
6.759137893947225e-05
7.350336732011606e-05
7.98851872223652e-05
8.677152517870884e-05
9.419902176015413e-05
0.000102206155785537
0.0001108330224800489
0.0001201209631880626
0.0001301119819263141
0.000140847869136832
0.0001523689582778171
0.0001647124479497982
0.0001779091619074768
0.0001911982490197276
0.0002040114423442325
0.000216527372073612
0.00022884475934474
0.0002409364673878727
0.0002526247360690751
0.0002635745182921703
0.0002733006002728115
0.000281186112887133
0.0002865129675933303
0.0002885098871286028
0.0002864321874856943
0.0002796982117759371
0.000268123132673812
0.0002523300696477539
0.0002339412673179353
0.0002143261035202131
0.0001935293503962672
0.0001711781650924868
0.000142475655815677
9.070092884976535e-05
4.487125484291898e-05
1.363803165897135e-05
2.033532517659546e-06
1.991434518768594e-07
2.51923945790783e-08
1.108240827667249e-08
1.003316110943158e-08
9.96114441235745e-09
9.956537763621681e-09
9.95621821494833e-09
9.956147750600133e-09
9.956088772105377e-09
9.956028853295051e-09
9.955967178676206e-09
9.955904358331869e-09
9.955840681710372e-09
9.955776449750708e-09
9.955711669042209e-09
9.955645931112805e-09
9.95558250198879e-09
9.955520804414619e-09
9.955460237181681e-09
9.955400798472529e-09
9.95534705317004e-09
9.955299975363951e-09
9.955261305423073e-09
9.95523409239116e-09
9.955308828827591e-09
1.069939274375564e-08
6.818523933664492e-07
0.0001076872903545724
0.001163272590719942
0.003526456032598315
1.716663366539572e-13
2.600660173103297e-11
4.908098877139373e-10
3.570576072886373e-09
1.557902871572381e-08
4.951419210212487e-08
1.258538088895015e-07
2.678308170272129e-07
4.910509444610937e-07
7.971891399757046e-07
1.148726318187911e-06
1.540581501978736e-06
1.995830534188613e-06
2.521760950031085e-06
3.122341242250342e-06
3.800702467081215e-06
4.559929441936557e-06
5.403517953071761e-06
6.33565225014596e-06
7.36104132558989e-06
8.483603623471965e-06
9.702577689138662e-06
1.100359072913184e-05
1.234110281251859e-05
1.374725833911475e-05
1.527044005028809e-05
1.692032165334292e-05
1.870742461764107e-05
2.064313510915367e-05
2.273973537912502e-05
2.501045163728859e-05
2.746950713677708e-05
3.013217992090499e-05
3.301486498564368e-05
3.6135140848116e-05
3.951184077105911e-05
4.316512914236349e-05
4.711658377132717e-05
5.138928523232534e-05
5.600791451557987e-05
6.09988558499618e-05
6.639028868489406e-05
7.22122573225776e-05
7.84967195349274e-05
8.527757137056984e-05
9.259063907193057e-05
0.0001004736207062635
0.0001089659535759288
0.0001181085763519374
0.0001279435431774157
0.0001385134325959205
0.0001498604761738772
0.0001620253082087444
0.0001750452080888833
0.0001889517018844374
0.0002037663439545549
0.0002181809345651798
0.0002321147760607259
0.0002457310513602253
0.0002590621756816191
0.0002719699457982461
0.0002841272417372103
0.0002950161080565015
0.0003039399953684162
0.000310052079057131
0.000312407356144238
0.0003100543437734855
0.0003021926092814744
0.0002884339272709944
0.000269209159537576
0.0002461764573701299
0.0002217766945612691
0.0001972309693109994
0.0001719829727249947
0.0001388299399785057
8.340996919099059e-05
3.641008004301998e-05
8.561529002431515e-06
9.535947408374822e-07
8.331309388310745e-08
1.5009415194794e-08
1.023361611922764e-08
9.926170076123222e-09
9.907859685297108e-09
9.906802270297569e-09
9.90669171595502e-09
9.906627144378272e-09
9.906563149804123e-09
9.906497342944805e-09
9.906430252447111e-09
9.906362204624147e-09
9.90629351163351e-09
9.906224241125818e-09
9.90615396587845e-09
9.906085909523394e-09
9.906019624576149e-09
9.905954494030092e-09
9.905890536311951e-09
9.905832141364269e-09
9.905780787750966e-09
9.905738162615693e-09
9.905707909011401e-09
9.909207629751562e-09
1.742361125078134e-08
4.821118457907668e-06
0.0003006033582511418
0.001967229541659557
0.004894554486723639
1.609112035957711e-13
2.437785492853807e-11
4.601467097682731e-10
3.349019154361286e-09
1.462272965060596e-08
4.652397248154476e-08
1.185317204112341e-07
2.53305568234942e-07
4.669598729499703e-07
7.623255203042277e-07
1.108709973869154e-06
1.490700047391571e-06
1.93423374738741e-06
2.447138581696072e-06
3.033555432105425e-06
3.696716126316115e-06
4.439784650514899e-06
5.266323520391607e-06
6.180577470769116e-06
7.18732257915826e-06
8.290569400182425e-06
9.48967737573448e-06
1.077035272619654e-05
1.208682236231176e-05
1.347208022491907e-05
1.49731445137607e-05
1.659963894367284e-05
1.836204184726539e-05
2.027170462675616e-05
2.234088325526071e-05
2.458278647870965e-05
2.701162896043315e-05
2.96426885732933e-05
3.249236745774924e-05
3.557825667124725e-05
3.891920447499106e-05
4.253538853295156e-05
4.644839257537837e-05
5.068128845163155e-05
5.525872472262116e-05
6.020701881652172e-05
6.555423718776444e-05
7.133025213812853e-05
7.756677688347988e-05
8.429737722574612e-05
9.155745378938925e-05
9.93841822197663e-05
0.0001078163924326271
0.000116894361736385
0.0001266594873644037
0.0001371537916052501
0.000148419196137596
0.0001604964806088784
0.000173423811925772
0.0001872346940399255
0.0002019551360807422
0.0002175997873081904
0.0002328131781255544
0.0002475833055327651
0.0002620726482975989
0.0002763018002984389
0.0002901069822842395
0.0003031177261428151
0.0003147495184333635
0.0003242098365751763
0.0003305213120225086
0.000332573545574362
0.0003292265123271244
0.0003195031303794664
0.0003029217101741833
0.0002800084280554081
0.0002527295496882255
0.0002242400468102271
0.0001963706035691706
0.000167746735345607
0.0001257317626976733
6.825726758590112e-05
2.392095931878651e-05
3.83837803160687e-06
3.235114805170939e-07
3.064115867912707e-08
1.111983981389475e-08
9.933134052403912e-09
9.866576764718271e-09
9.863079325276821e-09
9.862852072242788e-09
9.862779145158319e-09
9.862711410851418e-09
9.862641954849032e-09
9.862571104405442e-09
9.862499217454882e-09
9.862426616134983e-09
9.862353419416961e-09
9.862279189928539e-09
9.86220711123317e-09
9.862136845904209e-09
9.862067765116708e-09
9.861999885367579e-09
9.861937426408539e-09
9.861882413751325e-09
9.861836396781839e-09
9.861806437905281e-09
9.91797533691854e-09
7.322731096924029e-08
2.391450828574373e-05
0.0006242485183701674
0.002940019575340653
0.006216021665494933
1.500288157188605e-13
2.272970467841333e-11
4.291003119135646e-10
3.124259709983031e-09
1.364831261881787e-08
4.344896272200239e-08
1.108709034525344e-07
2.377447476413454e-07
4.405562014210281e-07
7.233967656494654e-07
1.063875237492016e-06
1.434648079755721e-06
1.864932422053997e-06
2.363132174493587e-06
2.933555533100526e-06
3.579526017637695e-06
4.304280762336676e-06
5.111449611620584e-06
6.005343030253194e-06
6.990795079618014e-06
8.07182376356282e-06
9.247597756588088e-06
1.050304209781991e-05
1.179015265321926e-05
1.315106680521559e-05
1.46264290975432e-05
1.622586975520673e-05
1.795988739462483e-05
1.983986956649549e-05
2.187812653817082e-05
2.40879409207249e-05
2.648362289567454e-05
2.908056935812593e-05
3.189532641002875e-05
3.494565481818934e-05
3.825059821553748e-05
4.183055400240076e-05
4.57073471614462e-05
4.990430754575725e-05
5.444635137366792e-05
5.936006411126878e-05
6.467377029608241e-05
7.041757877449445e-05
7.662340450485187e-05
8.332496593308058e-05
9.055775257709397e-05
9.835895204076526e-05
0.0001067673206727618
0.0001158229777019575
0.0001255670954725895
0.0001360414488283703
0.0001472877739797099
0.0001593468708411046
0.0001722573616022308
0.0001860539899039364
0.0002007653137512689
0.0002164106139283074
0.0002329957861036868
0.0002489875120516352
0.0002645320365848873
0.0002798036541818054
0.0002948072886250492
0.0003093361234811492
0.000322948999005281
0.0003349616256361712
0.0003444508166046186
0.0003502786042109708
0.000351154587954713
0.0003457707791464625
0.000333059756672151
0.0003126310911683514
0.0002853873117533553
0.000253860304983355
0.0002216363041874259
0.0001907172704385599
0.0001584566988902245
0.0001046114864376405
4.788825333146027e-05
1.168288081976374e-05
1.191619785080424e-06
8.666419432009477e-08
1.424299264238781e-08
1.005763918994609e-08
9.835112259474649e-09
9.824146278395015e-09
9.823587170932479e-09
9.82349777474909e-09
9.823426366085712e-09
9.823353644307005e-09
9.823279447325581e-09
9.823204155172429e-09
9.823128101056655e-09
9.823051448256173e-09
9.822973757740573e-09
9.822898177864047e-09
9.822824468152522e-09
9.822751998729333e-09
9.8226807771139e-09
9.822614824033768e-09
9.822556769314492e-09
9.822508574004546e-09
9.822685612440562e-09
1.035948299550266e-08
4.275671833447907e-07
8.042721681001636e-05
0.001052503329906205
0.00398944639190793
0.007336217382540568
1.412274171173093e-13
2.13966790643858e-11
4.039851528749442e-10
2.942370757240886e-09
1.285959602291109e-08
4.095876516151721e-08
1.046503866901193e-07
2.250442911233718e-07
4.188260837626814e-07
6.910898389397226e-07
1.026271790000853e-06
1.387378534282668e-06
1.806305810291167e-06
2.291901952564321e-06
2.848607565195852e-06
3.479824405995167e-06
4.188851057360766e-06
4.979367039316847e-06
5.855726336565625e-06
6.822817440570777e-06
7.88475647214491e-06
9.040893057968571e-06
1.027641832908623e-05
1.154353838510517e-05
1.288521424659426e-05
1.434034113218595e-05
1.591852144548643e-05
1.763024118938425e-05
1.948689496472928e-05
2.150082173481099e-05
2.36853565444275e-05
2.605488825243459e-05
2.862492126202639e-05
3.14121405372883e-05
3.443447933490584e-05
3.771118917454338e-05
4.126291172793026e-05
4.511175242676861e-05
4.928135573105937e-05
5.379698215596141e-05
5.868558471281601e-05
6.397587327669276e-05
6.969835482715832e-05
7.58853484483104e-05
8.257097433387013e-05
8.979111027529516e-05
9.758330540397989e-05
0.0001059866374398517
0.0001150414953256205
0.0001247892624813002
0.000135271867469849
0.0001465311577497836
0.000158608037880644
0.0001715412932192917
0.0001853659930931227
0.0002001113324631335
0.0002157977224087661
0.0002324328739239355
0.0002494586913855641
0.0002658271559236476
0.0002818160421200083
0.0002975756480269248
0.0003130611196077212
0.0003279916198840168
0.0003418270498569092
0.0003537571583917179
0.0003627050053984782
0.000367357281283297
0.0003662488123956824
0.0003579462875637896
0.0003413888521156732
0.0003164337333757868
0.0002845366465318604
0.0002488824608524936
0.0002132991969415259
0.0001796950095257862
0.000143216223201122
7.77780442500557e-05
2.663177350273263e-05
3.850526303346695e-06
2.729239398587248e-07
2.430885044667815e-08
1.052033394579821e-08
9.822196018368427e-09
9.789571744016793e-09
9.788103182172404e-09
9.787976036019931e-09
9.787900521673261e-09
9.787824837905343e-09
9.787747639595977e-09
9.787669306485283e-09
9.787590184553782e-09
9.787510476118585e-09
9.78742974810744e-09
9.78735112051399e-09
9.787274434374043e-09
9.787199061503945e-09
9.78712504124918e-09
9.787056147618232e-09
9.786995469391439e-09
9.78694749809988e-09
9.789377557783988e-09
1.331905274971871e-08
2.127582735608499e-06
0.0001955591373401088
0.001551625812177096
0.005048573304730962
0.008183299987317063
1.3302723782471e-13
2.015465628684558e-11
3.805775943910733e-10
2.772706134728608e-09
1.212276468090152e-08
3.862476085766464e-08
9.877218207598258e-08
2.128921904505364e-07
3.977728819071907e-07
6.594863413969161e-07
9.890746650678639e-07
1.340328256785022e-06
1.747689055522104e-06
2.220390829223671e-06
2.762987195184958e-06
3.378954795776528e-06
4.071657049318241e-06
4.84483000843337e-06
5.702877616341692e-06
6.650739293889057e-06
7.692593220874436e-06
8.827851710597256e-06
1.004167082248464e-05
1.12858000459138e-05
1.260690019866685e-05
1.404042323031376e-05
1.559598202289075e-05
1.728407931906356e-05
1.911613925459354e-05
2.110454575775149e-05
2.326269738593656e-05
2.560506840711368e-05
2.814727396718643e-05
3.090613857545401e-05
3.38997672144566e-05
3.714761842308023e-05
4.067057876021628e-05
4.44910380168203e-05
4.863296471729749e-05
5.312198166245883e-05
5.798543946197991e-05
6.325247919037177e-05
6.895407254942284e-05
7.512303555206541e-05
8.17940142883526e-05
8.900343649734578e-05
9.678941941619214e-05
0.0001051916211028547
0.0001142510179712635
0.0001240095857042772
0.0001345098547064133
0.000145794302609716
0.000157904532295063
0.0001708801667043116
0.0001847573762383864
0.0001995669325119952
0.0002153316518934586
0.0002320630654099291
0.0002497571082251994
0.000267350214059917
0.0002842700196959989
0.0003008046664811589
0.0003170717830029954
0.0003329582036274976
0.0003480842966575507
0.0003617830380033029
0.0003730902720312371
0.0003807520101139963
0.0003832681572900856
0.0003790108033484305
0.0003664770315643687
0.0003447498882286007
0.0003142201151596818
0.000277327955984217
0.0002383169560460936
0.000201172206092922
0.0001646950412048082
0.0001099451334836053
4.77848116943922e-05
1.013510273430025e-05
8.377919481624382e-07
5.457453153416752e-08
1.192370661159937e-08
9.85220737622623e-09
9.759670809374347e-09
9.75579980307659e-09
9.755581788369293e-09
9.755500674987403e-09
9.755422246222895e-09
9.755342331411641e-09
9.755261259877309e-09
9.755179391807935e-09
9.755096964705917e-09
9.755013558046665e-09
9.754932270004334e-09
9.754853022531882e-09
9.754775185363805e-09
9.754698855103833e-09
9.754627606862966e-09
9.754564317345007e-09
9.754520750351551e-09
9.768958916519667e-09
2.641519646927772e-08
8.00804647480445e-06
0.0003707532376371022
0.002086964682107961
0.006016074894739502
0.008731478361349595
1.268742452686026e-13
1.922269151307111e-11
3.630119151065455e-10
2.645365417859324e-09
1.156978439703062e-08
3.687413027148843e-08
9.436802944767417e-08
2.038106639723543e-07
3.820343569392025e-07
6.358211439520565e-07
9.610674950758655e-07
1.30482919677382e-06
1.70344484535001e-06
2.166424480093156e-06
2.69840695908499e-06
3.302925175234565e-06
3.983383883345638e-06
4.74354407604675e-06
5.587822370645242e-06
6.521185073775153e-06
7.547922938140987e-06
8.667793294353503e-06
9.866779222074347e-06
1.10982800400024e-05
1.240474065891286e-05
1.382282437274961e-05
1.536210316498582e-05
1.703304661431905e-05
1.884706029420244e-05
2.081652544831413e-05
2.295485675397643e-05
2.527656591638752e-05
2.779732969071047e-05
3.053406148421282e-05
3.350498573773021e-05
3.672971429928843e-05
4.022932396126842e-05