/*--------------------------------*- C++ -*----------------------------------*\
| =========                 |                                                 |
| \\      /  F ield         | OpenFOAM: The Open Source CFD Toolbox           |
|  \\    /   O peration     | Version:  v1812                                 |
|   \\  /    A nd           | Web:      www.OpenFOAM.com                      |
|    \\/     M anipulation  |                                                 |
\*---------------------------------------------------------------------------*/
FoamFile
{
    version     2.0;
    format      ascii;
    class       volScalarField;
    location    "0.00000125";
    object      nut;
}
// * * * * * * * * * * * * * * * * * * * * * * * * * * * * * * * * * * * * * //

dimensions      [0 2 -1 0 0 0 0];


internalField   nonuniform List<scalar> 
44064
(
7.218549560958293e-13
1.092186474822699e-10
2.050632891661121e-09
1.4793563163432e-08
6.338692459487144e-08
1.904791103243945e-07
4.34406197432366e-07
8.027473268333923e-07
1.19415748147083e-06
1.658051620454544e-06
2.20389152744285e-06
2.834525164928569e-06
3.551177901017139e-06
4.354579980439441e-06
5.24536347680855e-06
6.224230132253481e-06
7.291991950268195e-06
8.449531637428492e-06
9.697736732977146e-06
1.103746672704833e-05
1.24695978143322e-05
1.399514895774163e-05
1.561543420613106e-05
1.733215373434015e-05
1.914738636908299e-05
2.106356682963982e-05
2.308364008737779e-05
2.521165240768174e-05
2.745410729476161e-05
2.9819010115008e-05
3.231316200115778e-05
3.494174973837975e-05
3.770812483393147e-05
4.061323153000272e-05
4.365474679261403e-05
4.682626108761487e-05
5.011736596548797e-05
5.351637323560038e-05
5.701731522085927e-05
6.061806460247776e-05
6.43123059857694e-05
6.808999107265473e-05
7.193770900023829e-05
7.58387671357614e-05
7.977249922908886e-05
8.371196530298797e-05
8.761905755920813e-05
9.143680322398718e-05
9.508172851407145e-05
9.844623032150498e-05
0.0001014320892948737
0.0001040496895306539
0.0001066112552341564
0.0001099579508200293
0.0001154550193319735
0.0001241640514725936
0.0001338633884652534
0.0001327432509983851
0.000124976291241051
0.0001150897658200829
0.0001031500270747151
8.942736790590506e-05
7.44141743347027e-05
5.882968889045735e-05
4.359356506643607e-05
2.97366790160748e-05
1.827502046574376e-05
9.789143898564189e-06
4.398531446728705e-06
1.655876278242864e-06
5.462334339509891e-07
1.67995887321952e-07
5.309692258530369e-08
2.11560362734232e-08
1.296378514375641e-08
1.102547174863457e-08
1.060332991963471e-08
1.051892104090556e-08
1.050346973475367e-08
1.050088776707102e-08
1.05004922316469e-08
1.050043394539746e-08
1.050042271797263e-08
1.050041738739217e-08
1.050041259279372e-08
1.050040780412726e-08
1.050040301221279e-08
1.050039825815146e-08
1.050039350531541e-08
1.050038922047209e-08
1.05003845387012e-08
1.05003799731664e-08
1.050037616356528e-08
1.050037230809111e-08
1.050036871089706e-08
1.05003660077666e-08
1.050036355526546e-08
1.050036046126847e-08
1.050035876408336e-08
1.050035780542317e-08
1.050035676693421e-08
1.050035608017709e-08
1.050035586016192e-08
1.05004222757679e-08
1.053308160610916e-08
2.034571179247058e-08
2.020932275325524e-06
6.451455651153981e-05
1.063311244642092e-14
1.611302688068665e-12
3.045972487892196e-11
2.226255992628364e-10
9.778793924618466e-10
3.120994502415793e-09
7.938995127526752e-09
1.694919039846117e-08
3.144319716461787e-08
5.212751149974009e-08
7.917135550937176e-08
1.126425093678092e-07
1.531622525882553e-07
2.02516501259176e-07
2.644406964999865e-07
3.456984269157351e-07
4.572380280826718e-07
6.139629283260854e-07
8.339454803122883e-07
1.139810511030044e-06
1.560418650316746e-06
2.128882521711741e-06
2.871524590248455e-06
3.794942801899381e-06
4.892551850768282e-06
6.169160417787969e-06
7.633506629190162e-06
9.277182244604822e-06
1.110349562345624e-05
1.312010702174044e-05
1.533627359583135e-05
1.776226603797512e-05
2.040908045372266e-05
2.328818221795295e-05
2.64112635193015e-05
2.979000589973725e-05
3.343582922939502e-05
3.735962153760199e-05
4.157143841654873e-05
4.608007770400251e-05
5.089252419854104e-05
5.601334090789034e-05
6.144390111487281e-05
6.718141904560706e-05
7.321775969466407e-05
7.953795790052699e-05
8.611838014181731e-05
9.292442705960059e-05
9.990766003968512e-05
0.000107002201697637
0.0001127927034001316
0.00011754702846506
0.0001215896959756067
0.0001252097353755308
0.000128666992466442
0.0001321812550572436
0.0001359249843781337
0.000140048857385942
0.0001445840457939901
0.0001487262357769062
0.0001490585909129244
0.0001420043826187045
0.0001316379624120666
0.0001178178160676898
0.0001007737124047068
8.122589795100527e-05
6.061254685381588e-05
4.094556728383849e-05
2.395810482071134e-05
1.108904935508994e-05
3.61055980305243e-06
8.368325439048765e-07
1.723679648359031e-07
4.137373567243384e-08
1.633192212868123e-08
1.150032036530101e-08
1.057037617233614e-08
1.039630862373995e-08
1.036535664798871e-08
1.036020742627121e-08
1.035940273951907e-08
1.035927175573573e-08
1.035923506164812e-08
1.035920926752343e-08
1.035918381776903e-08
1.035915758071792e-08
1.035913053566e-08
1.03591028564455e-08
1.03590745993443e-08
1.035904641670889e-08
1.035901916620148e-08
1.035899140776377e-08
1.035896254541548e-08
1.035893386802327e-08
1.035890550846746e-08
1.03588783642374e-08
1.035885348878955e-08
1.03588304016274e-08
1.035881311938481e-08
1.035879866348101e-08
1.035878689796339e-08
1.035877902588151e-08
1.035877607964032e-08
1.03593345477401e-08
1.058718085895163e-08
6.618958603553195e-08
8.476270292236645e-06
0.0001266458897046226
3.413225909385484e-13
5.168749579039392e-11
9.72656775147189e-10
7.0114347308264e-09
3.004366410995761e-08
9.282124673290222e-08
2.262350836023764e-07
4.557378658541716e-07
7.888566759611563e-07
1.188582068915132e-06
1.633287105932187e-06
2.151593820782873e-06
2.751274773663945e-06
3.435158138008072e-06
4.20435244005105e-06
5.059386462256251e-06
6.001053631331186e-06
7.031259418020371e-06
8.153830490950813e-06
9.373323470652787e-06
1.069268247764575e-05
1.211435310131378e-05
1.364434441023921e-05
1.52918998357212e-05
1.706549718786583e-05
1.897304343960557e-05
2.102204053084509e-05
2.32196795073528e-05
2.557295427231263e-05
2.808879490186527e-05
3.077412001819201e-05
3.363584648923221e-05
3.668087217155164e-05
3.991604179746777e-05
4.3348090093674e-05
4.698352430986299e-05
5.082840396438405e-05
5.488803726659468e-05
5.916665416988183e-05
6.366711028600175e-05
6.839064647337527e-05
7.333671963521962e-05
7.850296637797209e-05
8.388538190637092e-05
8.947877846256059e-05
9.527747215248963e-05
0.0001012758511378985
0.0001074679213874579
0.0001138441168839765
0.0001203829000239931
0.0001270349434593637
0.0001336922771867697
0.0001401697218261723
0.0001462693396803994
0.000151859339811484
0.0001568953909613078
0.0001614204096657604
0.0001655001311240499
0.0001690848087743115
0.0001718609394375402
0.0001732173978340443
0.0001724787243222515
0.0001693775136011792
0.0001644275145944404
0.0001586747774199178
0.000151698024320058
0.0001359669569711025
0.0001086169014982889
8.01250920367158e-05
5.322932517430833e-05
3.001815345755101e-05
1.290668031855817e-05
3.750831050038787e-06
7.634170805654608e-07
1.352017309902084e-07
2.903162288658796e-08
1.287309667966098e-08
1.059141432912826e-08
1.028952424412626e-08
1.025180848793468e-08
1.024731438831761e-08
1.024678333691765e-08
1.024670122162455e-08
1.02466663456976e-08
1.024663515376329e-08
1.02466032681152e-08
1.02465703553403e-08
1.024653657491462e-08
1.024650189492587e-08
1.024646696015281e-08
1.024643168154062e-08
1.024639598374044e-08
1.02463599384636e-08
1.024632386343121e-08
1.024628783736153e-08
1.024625290418328e-08
1.024622075985598e-08
1.024619043189664e-08
1.024616585274118e-08
1.024614466249533e-08
1.024612745101125e-08
1.02461157728736e-08
1.024611212881805e-08
1.024798609293966e-08
1.094777730267852e-08
1.642026923583918e-07
1.693804734859478e-05
0.0001821365839427627
3.283008327940593e-13
4.971982777499389e-11
9.3634510267128e-10
6.772335394493668e-09
2.926623466138071e-08
9.147343626128454e-08
2.250539490891066e-07
4.559242804107642e-07
7.898938079655391e-07
1.18195367647511e-06
1.621344228744157e-06
2.135080203617874e-06
2.731749630420251e-06
3.416027112768555e-06
4.191558664870001e-06
5.061810223504871e-06
6.030422602542248e-06
7.10119466906741e-06
8.277316003270808e-06
9.561158221428074e-06
1.095580644121007e-05
1.24669079522622e-05
1.410197623831533e-05
1.586741451853384e-05
1.776656003266107e-05
1.979615112457652e-05
2.194074033140373e-05
2.424691897520278e-05
2.675081934524662e-05
2.946833109388734e-05
3.241627098973229e-05
3.561235373442912e-05
3.907511423657985e-05
4.282374864076994e-05
4.687782339669404e-05
5.117638247666046e-05
5.570084018711354e-05
6.047182655581568e-05
6.550687035389653e-05
7.081948931342772e-05
7.64187679464685e-05
8.230927779187551e-05
8.849105034486782e-05
9.495903564651791e-05
0.0001017013856274442
0.000108696456254849
0.0001159090071527678
0.0001232862392199598
0.0001307551004410851
0.0001382243277874258
0.0001455977375300183
0.0001528085463847551
0.0001598407815617917
0.0001666732195457268
0.0001732338388591534
0.0001794276155762577
0.0001851664358603981
0.0001903916054622165
0.0001950723265208548
0.0001991503255210581
0.0002023820356464448
0.0002042539518325323
0.0002042199787893883
0.0002019617800980641
0.0001973690873036111
0.0001903641791388715
0.0001809481882659399
0.0001694690028552805
0.0001547410545013083
0.0001257660511242652
8.926991199330736e-05
5.572445228086088e-05
2.794546189207119e-05
9.710464382561615e-06
2.115706315947348e-06
3.407228422239287e-07
5.499837746392581e-08
1.570192643623607e-08
1.078610369642312e-08
1.022106755844378e-08
1.016125242152085e-08
1.015538509394426e-08
1.015482385612093e-08
1.015474282762007e-08
1.015470110066382e-08
1.015466123921182e-08
1.015462027191569e-08
1.015457827629097e-08
1.01545352389586e-08
1.015449184021246e-08
1.015444783692823e-08
1.015440394233249e-08
1.015435994515371e-08
1.015431610654441e-08
1.015427256492786e-08
1.015423012093983e-08
1.015419057126968e-08
1.015415318267352e-08
1.015412156785267e-08
1.015409430816087e-08
1.015407241522989e-08
1.015405764291411e-08
1.015405496144755e-08
1.015872686322696e-08
1.179695576955421e-08
3.387228249981869e-07
2.718625530740269e-05
0.0002260287932674531
3.086270787467623e-13
4.674348433834928e-11
8.807796088071645e-10
6.384011547402252e-09
2.771832393460399e-08
8.71694509432545e-08
2.159653642324631e-07
4.401639385447469e-07
7.666146801187107e-07
1.156016246676267e-06
1.589072137189169e-06
2.095535959483833e-06
2.684688910628934e-06
3.361498141162069e-06
4.129718968932116e-06
4.992757516637896e-06
5.954096626357049e-06
7.017634695273889e-06
8.18797504870863e-06
9.470563980479516e-06
1.087141161711135e-05
1.239587264659219e-05
1.404558271593179e-05
1.581216959624981e-05
1.766597332273609e-05
1.959775250706859e-05
2.169493551455264e-05
2.397149828685223e-05
2.644251883581559e-05
2.912423467224465e-05
3.203409287391472e-05
3.519079767555383e-05
3.861435303217789e-05
4.232609723205312e-05
4.63487263700533e-05
5.070630341335916e-05
5.542423796122651e-05
6.052921491593448e-05
6.604905986273042e-05
7.201252110518132e-05
7.844893487653271e-05
8.538763352440029e-05
9.285683265552497e-05
0.0001006420461075758
0.0001085335361533677
0.0001165946930221531
0.0001248751996444692
0.0001334064412091261
0.0001421996234139472
0.0001512438640140703
0.0001605029723406363
0.0001699130110626846
0.0001793815934503794
0.0001887872232805956
0.0001979774458891267
0.000206765218835617
0.0002149238829963131
0.000222184624203395
0.0002282485719827947
0.0002328400649690979
0.0002358437993358535
0.0002373470674642611
0.00023741860230022
0.0002359712419445601
0.0002327853846866017
0.0002273535693608047
0.0002191946824106086
0.0002082136387581782
0.0001944805688474622
0.0001783456967347409
0.0001588261362441124
0.000122106020727133
7.957320845781921e-05
4.245137589942766e-05
1.581886530587353e-05
3.448073526973096e-06
4.924747699374893e-07
6.637168669498972e-08
1.604464096946466e-08
1.06597626184593e-08
1.013029773762511e-08
1.008237596179586e-08
1.00783506653241e-08
1.007800426264691e-08
1.007793881748638e-08
1.007789158639226e-08
1.007784422298692e-08
1.007779566045545e-08
1.00777456975208e-08
1.0077694926626e-08
1.007764353353252e-08
1.007759227484847e-08
1.007754083303217e-08
1.007748958089209e-08
1.007743869355379e-08
1.00773888778871e-08
1.007734200662556e-08
1.007729751262547e-08
1.007725885131353e-08
1.007722543202807e-08
1.007719859561754e-08
1.007718035411322e-08
1.007717982071229e-08
1.008660748014867e-08
1.316031394850452e-08
5.553406963885129e-07
3.188755498546533e-05
0.0001782611373620577
2.754548999182837e-13
4.1721833593449e-11
7.864299127973256e-10
5.704277728574844e-09
2.479083777324099e-08
7.818663653090982e-08
1.949475736094073e-07
4.01410572247155e-07
7.06982538456879e-07
1.086427596009066e-06
1.500697039107578e-06
1.984878228638726e-06
2.549219881309251e-06
3.199010933618203e-06
3.938240955826405e-06
4.770584244389954e-06
5.699885540253787e-06
6.730545547307024e-06
7.867811484578529e-06
9.117764307478048e-06
1.048650964008577e-05
1.197762879495097e-05
1.358629594692626e-05
1.528772835148906e-05
1.701732557027533e-05
1.889245944085747e-05
2.092803887400203e-05
2.313773363368121e-05
2.553634610276835e-05
2.813987400741248e-05
3.096557839347653e-05
3.403205394500305e-05
3.735929998344738e-05
4.096879019190032e-05
4.488353869499321e-05
4.912815976720321e-05
5.372891700139214e-05
5.871375688779551e-05
6.411232135732104e-05
6.995593180539512e-05
7.627753216894209e-05
8.311157076863541e-05
9.049380633726935e-05
9.846103412818558e-05
0.0001070506491330777
0.000116299885298661
0.0001262446402803444
0.0001369177592424528
0.0001482753598286609
0.0001593257881910645
0.0001702155407863868
0.0001810766738574688
0.0001920030937808285
0.0002030295615746899
0.0002141168043926163
0.000225145989482157
0.0002359212295553179
0.0002461784559587989
0.0002555989027323536
0.0002638243782141098
0.000270469066542218
0.0002751211332970644
0.0002773385288305276
0.0002766776790750269
0.0002728390490575338
0.0002660430192252874
0.0002567932547799913
0.0002453573261949682
0.0002315391442465054
0.0002150267507469935
0.0001959189763511479
0.0001745711194678682
0.0001462363563749248
9.621418471216144e-05
5.161515128735198e-05
1.891668159772421e-05
3.792965773767508e-06
4.674131752175114e-07
5.551514153267868e-08
1.412953093219166e-08
1.035565883129737e-08
1.003906933982008e-08
1.001458561439239e-08
1.001280290133893e-08
1.001264109879408e-08
1.001258398436229e-08
1.001253144515019e-08
1.001247777423775e-08
1.001242254226048e-08
1.00123663139548e-08
1.001230936608989e-08
1.001225228146313e-08
1.001219489496981e-08
1.001213770111849e-08
1.001208095440942e-08
1.001202526808726e-08
1.001197249184406e-08
1.001192219357587e-08
1.001187769669591e-08
1.001183910984616e-08
1.001180799622363e-08
1.001178654269955e-08
1.001179291513266e-08
1.002884602568859e-08
1.513002567159988e-08
8.251388041000922e-07
3.784809172464722e-05
0.0002297747629240653
2.56651847806739e-13
3.887543757792969e-11
7.329814041511617e-10
5.320878766439675e-09
2.315836852410939e-08
7.322279746051033e-08
1.83393356693055e-07
3.800247884023789e-07
6.739146550847819e-07
1.047517992084031e-06
1.451016106616131e-06
1.922515929786633e-06
2.47275937884929e-06
3.107164148878737e-06
3.829771881378201e-06
4.644275165782753e-06
5.55451248604417e-06
6.564860119431302e-06
7.680525557178678e-06
8.907517266729075e-06
1.025175692150513e-05
1.171630834206668e-05
1.329498503135987e-05
1.495979157096918e-05
1.665006489257043e-05
1.84840970721395e-05
2.047405491710852e-05
2.263315844919258e-05
2.497574120739385e-05
2.751731267851876e-05
3.027462954719926e-05
3.326577159523118e-05
3.65102211694645e-05
4.002894504339929e-05
4.384447725771061e-05
4.79810010362379e-05
5.246442788006121e-05
5.732247118829611e-05
6.258471048983092e-05
6.828264162300927e-05
7.444970375048054e-05
8.11212654983545e-05
8.833455418364353e-05
9.612851683606539e-05
0.0001045435951486045
0.0001136213893284471
0.000123404180270448
0.0001339342757917898
0.0001452531470105508
0.0001574003047765061
0.0001704111594155845
0.0001843123731144533
0.0001977572374033552
0.000210778465350615
0.0002235605876970625
0.0002362329551151911
0.0002488296163420406
0.0002612646381456955
0.0002733252726103447
0.0002846786240937304
0.0002948871366990535
0.0003034287194716296
0.0003097190589868252
0.0003131370176888218
0.0003130581839995164
0.0003089069028352448
0.0003002566455791583
0.0002870998478060555
0.0002703436851303859
0.0002512576370098531
0.0002302907104280417
0.0002076636111130285
0.0001844225140508682
0.0001586089878746016
0.0001032331763162879
5.317567992218446e-05
1.762869494241813e-05
2.953468122124089e-06
3.072528219340115e-07
3.524817410750192e-08
1.192237679112068e-08
1.009707928298692e-08
9.965579276782702e-09
9.956816128251474e-09
9.956232317483681e-09
9.95614791354194e-09
9.956089911322586e-09
9.956031756159666e-09
9.955971967629927e-09
9.95591104403712e-09
9.955849303712496e-09
9.955787218134148e-09
9.955724780654684e-09
9.955662582093753e-09
9.955600841545434e-09
9.955540215299705e-09
9.955482595966425e-09
9.955427548638259e-09
9.955378316740781e-09
9.955335592086902e-09
9.955301124782517e-09
9.955276925830054e-09
9.955298107582882e-09
9.983737862269122e-09
1.778642304752541e-08
1.151757700836998e-06
4.406074164109235e-05
0.0002555571411301336
2.369924399104562e-13
3.589889269761672e-11
6.77004262786484e-10
4.916770239433238e-09
2.141142385733683e-08
6.780524690419971e-08
1.704567153949914e-07
3.553931041981864e-07
6.349052323898339e-07
1.000876468708775e-06
1.390969335690243e-06
1.846705876875338e-06
2.379335305892792e-06
2.994423324674541e-06
3.696117080284261e-06
4.488217732519902e-06
5.374684950803429e-06
6.360030700083563e-06
7.449598153768687e-06
8.649466803837411e-06
9.965375201241197e-06
1.139949291070508e-05
1.294306749750718e-05
1.456209199821346e-05
1.621792164464662e-05
1.801479250155158e-05
1.996460796048657e-05
2.208031824415928e-05
2.437597066164361e-05
2.686677086957428e-05
2.956915456230248e-05
3.250086436051836e-05
3.568103098112091e-05
3.91302578309223e-05
4.287070804445074e-05
4.692619277831172e-05
5.132225928339826e-05
5.608627688011273e-05
6.124751845361785e-05
6.683723427406499e-05
7.288871126248616e-05
7.943730252595798e-05
8.652041310156458e-05
9.41774339424732e-05
0.0001024496117211923
0.0001113798355370598
0.000121012314899051
0.000131392116375449
0.0001425645187398274
0.0001545741364498419
0.0001674637505391666
0.0001812727854571924
0.0001960353579973096
0.0002117761850505711
0.0002276743669229581
0.000242704009316574
0.0002571229247982097
0.0002711422010382619
0.0002848541867587102
0.0002981844024402857
0.0003108736912429045
0.0003224838290858622
0.0003324196404506676
0.0003399618913596963
0.0003443078528412289
0.0003446214056999725
0.0003401028715945373
0.0003301005186889977
0.0003143014288329742
0.0002930855742975913
0.0002681733659732651
0.00024173706513321
0.0002150961413404499
0.0001891631694177217
0.0001607223898379934
0.0001000909602541419
4.699765309758739e-05
1.276177524442493e-05
1.635533574758239e-06
1.455793320142776e-07
1.98297218610937e-08
1.057337149691573e-08
9.948112860896782e-09
9.909171227302039e-09
9.906888989930269e-09
9.906713716776619e-09
9.906647843872287e-09
9.906585633579041e-09
9.906521854132253e-09
9.906456829751843e-09
9.906390902475343e-09
9.90632444080016e-09
9.9062575834913e-09
9.906191006895383e-09
9.906124979982712e-09
9.90606014537383e-09
9.905998346278241e-09
9.905939205755739e-09
9.905885882402263e-09
9.905839569410005e-09
9.905802328414772e-09
9.905775323930273e-09
9.905821870723352e-09
9.950184740845667e-09
2.124011044442373e-08
1.554731920814777e-06
5.208136769603217e-05
0.0003052489803792988
2.201825084324204e-13
3.335365008571554e-11
6.291286842802117e-10
4.571157829727063e-09
1.991746465569476e-08
6.314781663612525e-08
1.592568432174963e-07
3.339429141894074e-07
6.007613736481398e-07
9.57618139471683e-07
1.337494062036523e-06
1.779540365561719e-06
2.29636341847407e-06
2.893801135745491e-06
3.576065936604754e-06
4.346972268929174e-06
5.210475367385892e-06
6.171074922006022e-06
7.234090159861012e-06
8.405528892551631e-06
9.690890965265023e-06
1.109163398792552e-05
1.259714778815158e-05
1.416913788235437e-05
1.578561679949561e-05
1.753978833409305e-05
1.944331816549105e-05
2.150891222500236e-05
2.37503667174643e-05
2.618262746855595e-05
2.882186176514068e-05
3.168553631018694e-05
3.479250008472167e-05
3.816307139413119e-05
4.181912834398125e-05
4.578420185735763e-05
5.008357015213336e-05
5.474435331960859e-05
5.979560638081332e-05
6.526840861663215e-05
7.119594373439537e-05
7.761355729120856e-05
8.455877837391364e-05
9.207129928654634e-05
0.000100192904102648
0.0001089673313459597
0.0001184400500361607
0.0001286579229955243
0.0001396687247737214
0.0001515204727207718
0.0001642605199264406
0.0001779343476164217
0.0001925839817704125
0.000208245945047674
0.0002249485456246091
0.0002427066042730464
0.0002606391720108635
0.0002772929614412786
0.0002929984489102881
0.0003080180145482036
0.0003224425898006661
0.0003361307587201451
0.0003486905162094328
0.0003594933340196862
0.0003677105575589522
0.0003723648386864984
0.0003723956817849798
0.0003667512482060194
0.0003545408096777784
0.0003353115187323336
0.0003095347316627308
0.0002792757766038045
0.000247881732869384
0.0002176145920087056
0.0001884461753957018
0.0001518898151422149
8.73340579475593e-05
3.472710785378612e-05
6.843070214938874e-06
6.488646580095295e-07
5.479582074320531e-08
1.271731890995353e-08
1.002988019140929e-08
9.871979694340464e-09
9.863387433729469e-09
9.862901734607631e-09
9.86281883890091e-09
9.862752666505438e-09
9.86268537748341e-09
9.862616773481091e-09
9.862547200591555e-09
9.862476928662401e-09
9.86240622680061e-09
9.862335855040845e-09
9.862266042753769e-09
9.862197495071947e-09
9.862132087218301e-09
9.86206941282408e-09
9.86201257337253e-09
9.861963163888387e-09
9.861923741866241e-09
9.861894050126684e-09
9.86197911697332e-09
9.927613245117002e-09
2.564725774545087e-08
2.064677918192747e-06
6.232183527541017e-05
0.0003747629993285974
2.043660740167955e-13
3.095863101836777e-11
5.840531012918182e-10
4.245218964358139e-09
1.850381740007838e-08
5.870858931153029e-08
1.484200681575978e-07
3.12653754938427e-07
5.659456304407525e-07
9.077609772777496e-07
1.281655634978973e-06
1.710823585734593e-06
2.211962679612594e-06
2.791806783306792e-06
3.454834162433864e-06
4.204970603309531e-06
5.046232964065216e-06
5.9831604328188e-06
7.021098106641144e-06
8.166061658208644e-06
9.423503015774929e-06
1.079464804227853e-05
1.226813885295016e-05
1.380371517070761e-05
1.538790198282954e-05
1.710719253979161e-05
1.897302801826505e-05
2.09978809894457e-05
2.319530496490828e-05
2.557999302094369e-05
2.8167849191398e-05
3.09760667266232e-05
3.402321162415992e-05
3.732931081330244e-05
4.091594429548269e-05
4.480634044625736e-05
4.902547359029847e-05
5.360016276256887e-05
5.855917028960051e-05
6.393329851522274e-05
6.975548064019298e-05
7.606085450092529e-05
8.288680623967437e-05
9.027297755734576e-05
9.826122998020622e-05
0.0001068955537327707
0.0001162219038352646
0.0001262879401312592
0.0001371426430563524
0.0001488357699522128
0.0001614171068731626
0.0001749354596513203
0.000189437314257805
0.0002049650798752575
0.000221554808280325
0.000239233260012612
0.0002580138432266752
0.0002778895889187665
0.0002967478899794558
0.0003140912422240342
0.0003302982116443285
0.0003456093727967223
0.000360007680921221
0.0003731616786918164
0.0003844194166125138
0.0003928402430304674
0.0003972564852277853
0.0003963671872874452
0.0003888828120020256
0.0003737606913835731
0.0003505829023698253
0.0003201068392862164
0.0002848310357986684
0.0002488997633312267
0.0002151460486060493
0.0001820923651732871
0.0001323737012757572
6.690127407677117e-05
2.008213386974663e-05
2.574551149455098e-06
1.932133386347396e-07
2.09614078549748e-08
1.044313835879105e-08
9.85543221910304e-09
9.82517457582608e-09
9.823683821907744e-09
9.823555424899523e-09
9.823484540201795e-09
9.823414060306528e-09
9.823342251809054e-09
9.823269427148446e-09
9.823195762398719e-09
9.823121644362206e-09
9.82304791370405e-09
9.822974834286775e-09
9.8229031090183e-09
9.822834568961616e-09
9.822768841919444e-09
9.822708974006924e-09
9.822656823884408e-09
9.822615777908154e-09
9.822583331840998e-09
9.822721407997955e-09
9.915579847071887e-09
3.12061138366114e-08
2.725262479991812e-06
7.534920902188627e-05
0.0004591768846409502
1.910614891352912e-13
2.894392569503075e-11
5.461341852984009e-10
3.971208303581443e-09
1.731870149682434e-08
5.499986736395918e-08
1.393805407247876e-07
2.948438975699683e-07
5.36610919622303e-07
8.653577336577337e-07
1.232644906866473e-06
1.649450728869033e-06
2.135584639546716e-06
2.698381230664199e-06
3.342459452774083e-06
4.07178219707027e-06
4.890372825421798e-06
5.802763253716614e-06
6.814279794136001e-06
7.930897101203492e-06
9.157958708658934e-06
1.04963794341371e-05
1.19339524602578e-05
1.342830235126227e-05
1.49771051974111e-05
1.66583686796997e-05
1.848335955495525e-05
2.046436879775449e-05
2.261476195750509e-05
2.4949038637698e-05
2.748290385034238e-05
3.02333468750086e-05
3.321872560565593e-05
3.645885576090956e-05
3.997510431814797e-05
4.379048647660542e-05
4.792976531461902e-05
5.241955312319923e-05
5.72884132492096e-05
6.256696093179148e-05
6.828796010432378e-05
7.448640803198417e-05
8.119959591880227e-05
8.846713668674733e-05
9.6330952867278e-05
0.0001048352148648285
0.0001140262158326329
0.0001239521641300389
0.0001346628682898022
0.000146209283057039
0.0001586428772695879
0.0001720147742952579
0.0001863746033678818
0.0002017689852992785
0.0002182395583719115
0.0002358204293006858
0.0002545349176560345
0.0002743912027647178
0.0002953756752013624
0.0003167191224340699
0.0003358460524094282
0.0003532346988374279
0.0003692642694344998
0.0003840347731345164
0.0003972711168819705
0.0004082986424647377
0.0004160740927101815
0.0004192628752211072
0.0004163671450817515
0.0004059284559118015
0.0003868477466975505
0.0003588672865097181
0.0003232159912379767
0.0002831193032860891
0.000243229033009713
0.0002066293178510045
0.000169954976922534
0.0001049415722973657
4.26714915306888e-05
8.246670174506444e-06
6.856995333378534e-07
4.975050608954925e-08
1.191653343619435e-08
9.892380762511572e-09
9.792864364060645e-09
9.788307228452259e-09
9.788051887496164e-09
9.787973613986912e-09
9.787900140637096e-09
9.78782543494408e-09
9.78774968220015e-09
9.787672966474009e-09
9.787595780623306e-09
9.78751904767452e-09
9.787442993932019e-09
9.787368384116541e-09
9.787297075482225e-09
9.787228656831158e-09
9.787166178806232e-09
9.78711158803107e-09
9.787069429908072e-09
9.787034324231483e-09
9.787237485544302e-09
9.913190789230587e-09
3.808641689999462e-08
3.580689366060795e-06
9.086265190142573e-05
0.0005501820948711738
1.801211074331229e-13
2.728715698820185e-11
5.149429490099466e-10
3.745626525233671e-09
1.634145861017489e-08
5.193147133524166e-08
1.318692201289729e-07
2.799625256117456e-07
5.119205597497306e-07
8.294907569827005e-07
1.191245917989374e-06
1.597623153515835e-06
2.071159604851925e-06
2.619698883616447e-06
3.247980821706995e-06
3.960000742762622e-06
4.759780047329446e-06
5.651824384968051e-06
6.641417931185483e-06
7.734501240510524e-06
8.936444022306198e-06
1.024833421434821e-05
1.16583903143681e-05
1.312499484343703e-05
1.46455493778246e-05
1.629627191854296e-05
1.808822350908304e-05
2.0033477858364e-05
2.214517289363618e-05
2.443757146488473e-05
2.692613284976547e-05
2.962759214671931e-05
3.256004549010569e-05
3.574304051874948e-05
3.91976714888345e-05
4.294667835169425e-05
4.701454899187465e-05
5.142762363138741e-05
5.621420019622016e-05
6.140463913654772e-05
6.703146510651435e-05
7.31294593848042e-05
7.973573287809222e-05
8.68897709057118e-05
9.463344193116573e-05
0.0001030109611383848
0.0001120687979867317
0.0001218555103589647
0.0001324214813249086
0.0001438185297402876
0.0001560993598576146
0.0001693168058159282
0.0001835228154121984
0.0001987671036199217
0.0002150953897414612
0.0002325471127171996
0.0002511524846299324
0.0002709287206421384
0.0002918751244225686
0.0003139653958406779
0.0003369731489331501
0.000357357883873355
0.0003756219152731781
0.000392199036827682
0.0004072237060360983
0.0004203948800581921
0.0004309344142246833
0.0004376238275053887
0.0004389107855269702
0.0004330921753749701
0.0004185999229779851
0.0003944287163819313
0.0003607290900004235
0.0003195047414698036
0.0002748927687462847
0.0002319005150873403
0.0001926100738924417
0.0001459137620975245
7.244164429439398e-05
2.037418108632347e-05
2.239902211368465e-06
1.435859237623717e-07
1.663239872642475e-08
1.00792705883023e-08
9.769768996051958e-09
9.756285366260732e-09
9.755680103573709e-09
9.75558690231896e-09
9.755510421406457e-09
9.755433053604074e-09
9.755354624212343e-09
9.755275123393909e-09
9.755195139781857e-09
9.755115676846198e-09
9.755036988739078e-09
9.75495984298973e-09
9.754886061209207e-09
9.754815239960365e-09
9.754750482357472e-09
9.754693618018851e-09
9.754650786270353e-09
9.754612821220754e-09
9.754885852122873e-09
9.91871130732143e-09
4.6404901069595e-08
4.683525031993203e-06
0.0001093972302844719
0.0006535583322444593
1.682980759035694e-13
2.549662021182705e-11
4.812207748107242e-10
3.501490892902953e-09
1.528159975562797e-08
4.858397637659828e-08
1.235777737880773e-07
2.632979912997526e-07
4.838675038202379e-07
7.882468581460889e-07
1.1435864494254e-06
1.537893344837091e-06
1.996949868206283e-06
2.529181058731563e-06
3.139467492120684e-06
3.831856828313856e-06
4.610399822850123e-06
5.479621787830909e-06
6.444815810983258e-06
7.511900934419351e-06
8.686123896728278e-06
9.968148120159596e-06
1.134498991181141e-05
1.277206689683366e-05
1.426066130787473e-05
1.587706480301763e-05
1.76321782824911e-05
1.953790941486808e-05
2.16072243426599e-05
2.385420963238531e-05
2.629414414110747e-05
2.894357875836253e-05
3.182042218317846e-05
3.494403218699991e-05
3.83353117418092e-05
4.201680932288503e-05