/*--------------------------------*- C++ -*----------------------------------*\
| =========                 |                                                 |
| \\      /  F ield         | OpenFOAM: The Open Source CFD Toolbox           |
|  \\    /   O peration     | Version:  v1812                                 |
|   \\  /    A nd           | Web:      www.OpenFOAM.com                      |
|    \\/     M anipulation  |                                                 |
\*---------------------------------------------------------------------------*/
FoamFile
{
    version     2.0;
    format      ascii;
    class       volScalarField;
    location    "0.00000125";
    object      omega;
}
// * * * * * * * * * * * * * * * * * * * * * * * * * * * * * * * * * * * * * //

dimensions      [0 0 -1 0 0 0 0];


internalField   nonuniform List<scalar> 
44064
(
1142212.127956878
209732.9183771093
73686.07497175998
35841.10340004657
20722.92860895688
13241.91228401914
9082.072009373542
6593.031472530999
4999.973133128918
3916.139063367003
3146.29421893436
2580.534741351298
2152.649283478985
1820.941799722615
1558.220022344425
1346.216281809441
1172.334727655747
1027.685846564893
905.8624353584531
802.1569528009459
713.0491796822477
635.8636174971249
568.535907396864
509.4507263711496
457.3274363716147
411.1382002775342
370.0485302239862
333.3735691639656
300.5455595634173
271.0893684333619
244.6038821591529
220.7477240661669
199.2281874052515
179.7925832463565
162.2214198471319
146.3229857225687
131.9290210383598
118.8912424618868
107.0785415814029
96.37470926321052
86.67654864277161
77.89224495921692
69.93988788313168
62.74607757775234
56.24455739142321
50.37484566031745
45.08094574536495
40.31042321971809
36.01442565628274
32.14947517197734
28.6822077910534
25.59757695232796
22.89600882825933
20.57574965433331
18.62512869063481
16.98070965844759
15.54826259546963
14.28422575925605
13.18451783075436
12.23881414249985
11.43211251612813
10.74530324011435
10.15863344824646
9.654579621258442
9.217617465584951
8.839330196710868
8.527871353444489
8.282406266927671
8.115887730325852
8.033734227985503
8.003001365057289
7.992449626353824
7.989700822941303
7.98908293530911
7.988861135692187
7.988757137381421
7.988753465498421
7.988749210671207
7.98874201949316
7.988737273772916
7.988732271689059
7.988726672987393
7.988721380722357
7.988715415332726
7.988708691198779
7.988702640379143
7.988696602489012
7.98869044466482
7.988684363761329
7.988678426387002
7.988672728844409
7.988667296059672
7.988661778736828
7.988657302187582
7.988653215999587
7.988648999259246
7.988645913975438
7.988641985296042
7.988639555360115
7.988638309598722
7.98863688900287
7.988635939414805
7.988635545786304
7.98863590036374
7.988639551463222
7.989560155190063
8.219931803737074
26.54548162186508
1142178.197644973
209447.1421313902
73177.25476581525
35412.0271245314
20807.15722240553
13986.86587408982
10402.92026118972
8340.791716383894
7035.919245313088
6108.271182825905
5361.571470614014
4700.121836678545
4087.520655778025
3520.479501396213
3008.414546016859
2559.533827193176
2175.036872664986
1850.14697722008
1577.575811679645
1349.304808200225
1158.081171053439
997.6500935751509
862.6561371043827
748.7082269157055
652.1817666572538
570.0965250887454
500.0076485224004
439.9127296132971
388.1729518860013
343.4461559258272
304.6310652231425
270.8214795308912
241.2691206629134
215.3536382023937
192.5586384067229
172.4525115048499
154.6729992180207
138.9149787198473
124.9204842842211
112.470907673098
101.3621914363261
91.40314631565204
82.43727098525828
74.34310391921917
67.02326411683948
60.39701034981542
54.39506672496604
48.95683958695174
44.02897102973233
39.56480872940596
35.52435322664763
31.87416978562847
28.58657566795735
25.63762583906479
23.00426595823539
20.66179610557937
18.58428312493205
16.74870016408972
15.13991582590071
13.74973572731057
12.56731940148419
11.57562330072035
10.74156469721319
10.03721682433507
9.448425512122244
8.950899702055796
8.509007599903654
8.077643331665085
7.636983566546067
7.220537208549833
6.913066852157897
6.780009106592366
6.745077691387675
6.738469356953055
6.737188396679492
6.736971019780824
6.736847979868401
6.736747046328921
6.736646835107288
6.736536161381569
6.736414796318292
6.736283078650446
6.736141700641244
6.735992366195039
6.735832308206179
6.735659952247361
6.735477889245565
6.735288531590438
6.735093262435871
6.734893119054088
6.734689540460104
6.734484172305052
6.734277929143039
6.734072981281148
6.733876146578399
6.733682855480379
6.73349178185047
6.733308235636533
6.733170245262632
6.733053352462091
6.732960290290157
6.732897239760502
6.732871007336986
6.732891481159189
6.732986352029822
6.736654660237194
7.405686546604318
31.61564030927753
1142190.721482682
209510.6891407703
73318.80483757696
35572.39540378888
20818.79148593923
13645.18433535887
9590.983577882949
7060.48732443498
5391.256161879109
4250.217484320615
3436.413936796464
2832.272285457058
2371.53071034027
2012.275313371282
1726.660622289217
1495.632045092572
1305.847972133982
1147.780946926818
1014.508602471344
900.9195134677141
803.1788628515092
718.3696616504737
644.245710293345
579.057633355372
521.4263169136824
470.2495061066812
424.6340105407468
383.8468589348462
347.279655105092
314.4220806797858
284.8418747992896
258.1695990623712
234.0869516599375
212.3177261890258
192.6207086210194
174.783988408744
158.6204407347489
143.9640538560685
130.6668931757306
118.5966046299269
107.6343472291042
97.67320776353822
88.61702713192696
80.37942591754896
72.88288193123984
66.05785674148292
59.84193872937715
54.17906555348105
49.01881646611545
44.31580082108951
40.02917363768911
36.12232149963044
32.56276019659352
29.32223332565066
26.37687315316484
23.70713031364931
21.29712330237704
19.13318637603684
17.20266831474962
15.49402402620056
13.99766163622197
12.7057784059528
11.60702793946276
10.68272895754642
9.909887225384709
9.26777430361707
8.735081105124554
8.282119466730334
7.868428721188407
7.424987469971752
6.918297809102801
6.413303107864142
6.057971184450987
5.921514108347094
5.891705802599068
5.88703880354741
5.886312326002704
5.886110118139335
5.885975820020955
5.885840331433487
5.885695073873143
5.885539373930865
5.88537346039502
5.885197044566381
5.885009126703331
5.884810176876309
5.884601289974615
5.884383533795567
5.884157822235701
5.883925010944881
5.883686283766037
5.883443053158838
5.883196198414282
5.882948411604147
5.882713399461525
5.882478877060332
5.882244424378966
5.882016317781449
5.88183108038454
5.88166918384845
5.881537166829435
5.88144388607023
5.881399760544633
5.881418159144037
5.881545190493542
5.889959659612928
7.110491944358798
25.55891013741646
1142188.628146544
209498.174935156
73277.18327235183
35471.78405429784
20629.60617305412
13371.7852890624
9270.059485734546
6740.182840179925
5102.515960216879
3998.616517843197
3218.829374864197
2645.243625788221
2211.338691543564
1875.368832342334
1609.860952389701
1396.174234669011
1221.356906214583
1076.227113994351
954.1622891729908
850.3112070666978
761.0650808153915
683.6959492277011
616.1043729348568
556.6344687915644
503.9320514860715
456.9186380952873
414.7870874928736
376.9228582710541
342.8094242793032
312.0091677686804
284.1485479449655
258.9065132022338
236.0053805261112
215.2036026554598
196.2899891680086
179.0790554105909
163.4072532389643
149.1298970230493
136.1186375780199
124.2595003797582
113.4419678365619
103.5518628142669
94.48883980902174
86.17289938384204
78.53765444023551
71.52603171517659
65.08762721019002
59.17713926289562
53.75346966843894
48.77910352034596
44.21958351444678
40.04312758673718
36.22032818313316
32.72392171128123
29.52863867983054
26.61122061318807
23.95077707662862
21.52974521918676
19.33457937374268
17.35503981630748
15.58318728965731
14.01312433452635
12.64200480351006
11.47027470683311
10.49002448799003
9.679205475666706
9.010754367731055
8.459106597637541
8.002053900655937
7.60508359612026
7.20541761534353
6.721379430779886
6.146814164706399
5.624298311426345
5.352553303565834
5.285079010291766
5.274905346128412
5.273561194670467
5.273284931064748
5.273112193599964
5.272940069068317
5.272758512158748
5.272566192905835
5.272362204548243
5.272148341515888
5.271924771967435
5.271691295314051
5.271448544386771
5.27119737844366
5.270938686406674
5.270673633801843
5.270403771862424
5.2701302213802
5.269855532726514
5.269591253329268
5.269328056156435
5.269066033071936
5.268811153766973
5.26859549313139
5.268407841164607
5.268255332712464
5.268147854807024
5.268097776180185
5.268122436995084
5.268323076809609
5.292751563861658
7.410827148425137
18.90328706047392
1142185.578147821
209482.3888249288
73240.37077775931
35421.90416322085
20589.2655215852
13353.87372454776
9270.121484643874
6743.951534911796
5101.94709654393
3994.056139257611
3212.459358467461
2637.792439887197
2203.166045773442
1866.796048547296
1601.17286980015
1387.610512836639
1213.112037823216
1068.457771482216
946.9945176045877
843.8450567397044
755.3767188669603
678.8321568434484
612.0581262804438
553.2932491795541
501.1536512519327
454.6330308641766
412.9807550384784
375.5732739632307
341.8883438617724
311.4848645174131
283.9873127687705
259.073642928837
236.465806510928
215.9222633792177
197.2320170593217
180.209824617552
164.6923179068693
150.5348367138267
137.6088213630883
125.7996482825956
115.0048298941989
105.1325707965366
96.10064510168698
87.83543925693296
80.27107992425654
73.34865639183688
67.01554808207223
61.22496859038775
55.92053004975322
51.04095065720646
46.53997369556156
42.38348255019962
38.54499590761679
35.00271349953692
31.73763821497261
28.73250728185151
25.97134508504531
23.43942241313606
21.12340572438014
19.01141315504201
17.0930221303648
15.35941878224338
13.80392738545325
12.42323200384938
11.21906192022673
10.19950573126307
9.361195504863042
8.680219898802617
8.126982647990436
7.674248149085482
7.294815071473074
6.928396303829571
6.482224744458922
5.896064765945252
5.280937116191909
4.917408047782816
4.825212074002748
4.812810425645817
4.811396391216719
4.811118317981058
4.810933102641514
4.810743232111711
4.810541213873633
4.810326786956119
4.810101612090175
4.809865960788902
4.809619869737554
4.809363727345305
4.809098079613591
4.808824573517921
4.808544122395837
4.808258026088811
4.807967557033221
4.807675183737288
4.807391009241078
4.807107841722831
4.806826304961956
4.806552264229374
4.806314910914243
4.806109599463011
4.805942718804877
4.805825018625163
4.805769627111735
4.805795621168417
4.806206025422271
4.897465458304214
8.867613833365509
24.45785871725872
1142183.684344755
209472.4365946218
73216.17370007861
35385.48954799948
20550.64560394198
13319.21316811258
9239.641565041675
6715.481728232904
5071.882335286933
3962.930073256729
3183.404851967049
2611.596851187743
2179.582757341801
1845.537042702067
1582.005679144999
1370.349369859493
1197.601583697002
1054.561984602636
934.589534697634
832.8161496890776
745.6173387843839
670.2435226507087
604.5477694871488
546.7715006831296
495.5377967714464
449.8473077055036
408.9536893322605
372.2373214561958
339.1797772457289
309.3437260227082
282.3573413174257
257.9021720965681
235.7036357023814
215.5235072051207
197.153938731012
180.4126592023047
165.1390912347936
151.1911857118643
138.4428219856204
126.7816579092514
116.1073513036268
106.3301018554312
97.36943401181182
89.15314402474942
81.61637624035083
74.70080854302337
68.35393284711233
62.52841693507303
57.18153051219507
52.27480953267681
47.77395839638508
43.64874060546657
39.86041412463232
36.36535381972796
33.13175586946736
30.13762812041578
27.36701966455898
24.80741796431533
22.44811310388457
20.27933362766683
18.29197348720842
16.47767401810454
14.82922427189792
13.34111880343759
12.0101253709026
10.83575848563017
9.822868225635677
8.98172895075237
8.303902049718808
7.761501284341588
7.323763040082321
6.966139302225486
6.622522425107299
6.197482158222114
5.599384619128982
4.932215710568136
4.547499412651142
4.461028765925164
4.451210478897523
4.450185332767117
4.449935767191807
4.449737016752787
4.449530699067192
4.449312212610499
4.449082298323986
4.448841467585678
4.448590082210671
4.448328386396869
4.448056839096223
4.447777322986407
4.447490409640398
4.447197365073818
4.44689952069293
4.4465992343834
4.446305495928294
4.446012568143622
4.445721396456958
4.445437641930016
4.445188019870502
4.444971586195794
4.444795025303737
4.444669785728473
4.444609132771016
4.444628884942167
4.445962489475732
4.761665341275544
10.59787924691465
23.2821679375954
1142182.192823348
209464.7108280888
73198.11692397618
35361.01770669652
20531.48866228896
13312.77231747262
9242.068773578778
6720.9212149171
5075.074969422379
3962.377073154221
3180.346766236452
2607.207163285303
2174.266382793442
1839.592666789119
1575.692259229975
1363.878605567662
1191.137799191863
1048.227435066882
928.4728841998658
826.9805147225211
740.1067534944528
665.086747650891
599.7590543447573
542.3467324209208
491.4660812306627
446.1184987668807
405.5551587277079
369.1547591266119
336.397864236794
306.8467188750867
280.1294741835799
255.9279253347559
233.9679067879575
214.0117101858036
195.852051480344
179.3072329798622
164.2172333453125
150.440523166704
137.8514522124773
126.3380909139466
115.8004444695563
106.1489870295988
97.3034419785221
89.19173448865665
81.7490795283027
74.91718403097236
68.64354952992142
62.8808620729396
57.58645692965263
52.72185073055413
48.25232984170142
44.14657673491175
40.3763185797857
36.91625502775867
33.73749700496687
30.805327768765
28.09103069076722
25.57520393731179
23.24433019857249
21.08834049262258
19.09902718440886
17.26919564870221
15.59227213211468
14.06241306620507
12.67496633884666
11.42711373697215
10.3186147196914
9.353234187959922
8.543032786222424
7.891185607097497
7.37576895931193
6.96455824312387
6.632075161795431
6.304805882258543
5.878202665073897
5.242959724823308
4.553526909558253
4.222454268809428
4.165594136489767
4.160285867277578
4.159718753398977
4.159497882944219
4.159288698138626
4.159068513362018
4.158836596908728
4.15859346950521
4.158339765447869
4.158075663116269
4.157801534163941
4.157519113205668
4.157229089389632
4.156932706393945
4.15663133343785
4.156327236410853
4.156028538530634
4.155730546639357
4.15543440078961
4.155145499721753
4.154888481153895
4.154664802217451
4.154481288498869
4.154349880454252
4.154285289002744
4.154298974978222
4.161523518181262
5.046534419469737
12.5167223732434
23.65794766206202
1142180.935970501
209458.2715812818
73183.579188733
35343.27782576768
20523.09545340364
13321.98432232325
9264.063377403472
6747.65923620938
5098.421790081192
3979.588967970284
3192.740496506151
2616.212116742342
2180.575834805417
1843.800480243333
1578.303984893871
1365.301598966158
1191.687727800359
1048.143631360535
927.935974572689
826.1267492321158
739.0404990613158
663.888005531883
598.4868837914223
541.0374312674544
490.1494815875046
444.8227477965845
404.3001301784328
367.9541235770211
335.260714673617
305.778841124794
279.1342724326314
255.0070967004393
233.1219334131623
213.2402178363955
195.1540697219497
178.6813817920272
163.6618541158863
149.9537674139389
137.431337687414
125.9825321825451
115.5072627951609
105.9159033986753
97.12805826243397
89.07150670378657
81.68128515134212
74.8988858927931
68.67155932403357
62.95170645047671
57.69634839694677
52.86666189403654
48.42757099083234
44.3473863516303
40.59748488372879
37.15202377415017
33.98767776640378
31.08358236262893
28.41312829873717
25.94650630318646
23.66196540900834
21.54478561525104
19.5845340664638
17.77323506632701
16.10426233896612
14.57172991476615
13.1704093303015
11.89608876623529
10.74624541750628
9.720908747950718
8.823970273457494
8.067819654742332
7.46097740053871
6.985441642521423
6.608689657894169
6.304605506940081
5.982782976351372
5.524192707099075
4.820954352174021
4.169066117273232
3.949237085338952
3.923050543002362
3.920938525420318
3.920617963123102
3.920403144623875
3.920182863196882
3.919950868138599
3.919707506864129
3.919453592360884
3.919189262778193
3.918914812990107
3.918631844226599
3.918341122237512
3.918043863494533
3.917741450993591
3.917436068065073
3.917135146684823
3.91683477363032
3.916536219141782
3.916244625569838
3.915982926576561
3.915754338861853
3.915565580292464
3.915428561771367
3.915363527498171
3.915419548053013
3.95444915453418
5.859594716924453
14.3454657856361
24.52575549732931
1142179.94895498
209453.1735661035
73171.73912799606
35327.65178982451
20512.66408603011
13323.98786271653
9275.34573095365
6762.105308329929
5111.35515190459
3989.068948533317
3199.521797334991
2621.590452235381
2184.805694098849
1847.016080031404
1580.640392341827
1366.895492743164
1192.664778427924
1048.6149043786
927.9977551661823
825.8630924414229
738.5248125385484
663.184383490237
597.649759996522
540.1092982069421
489.1632753055198
443.8045958964114
403.2700202645332
366.9273083431504
334.2487890249222
304.7905873871374
278.176311364835
254.0843891447965
232.2381678172711
212.3981095668991
194.355591607157
177.9279407474543
162.9544252951754
149.2929946723149
136.8176072094336
125.4160245220766
114.9879871856882
105.4437173625688
96.70267572143405
88.69249756226154
81.34806837950332
74.61071668555162
68.42751035731629
62.75064446615914
57.53690845887072
52.74722180669379
48.34622849230692
44.3019419974684
40.58543355773968
37.1705576301876
34.03370953717548
31.15361209213631
28.51112626575184
26.08186432928137
23.83884221877027
21.76238178114619
19.83892195154862
18.05864599796495
16.41389954886435
14.89823615479569
13.50591470814363
12.23185966276647
11.0720288790425
10.02407933093756
9.088307576180398
8.26915057732562
7.580214107699488
7.031270190369783
6.603905425677396
6.26758614750737
5.988563478092104
5.653920549547369
5.116651376168391
4.339298775658846
3.831828156146247
3.729387486868122
3.72083999209321
3.720127175379187
3.719891533484881
3.719671239486408
3.719440280519546
3.719197846984301
3.718944912539983
3.718681613400033
3.718408181503968
3.718126101777965
3.717836193594365
3.7175396460036
3.717237840685212
3.716932886080474
3.716631649540777
3.716330814456129
3.716031739221541
3.715739326709657
3.715475077057441
3.715243584087569
3.715051418500793
3.714909061130069
3.71485088228071
3.715297920696283
3.869923490714125
7.095038767710738
15.84331578415553
25.76497087140362
1142179.031336637
209448.4780472277
73161.13670444091
35314.87160345756
20507.91708434658
13336.26316986078
9302.26409288301
6795.753027713086
5143.652760826471
4016.171898372837
3221.753067528982
2639.972585979216
2199.870795511121
1859.283421697311
1590.602444176455
1374.980863292653
1199.227347325969
1053.939634257007
932.3123446449788
829.3507477984456
741.3351695180254
665.4411130197823
599.4537326162656
541.5353577867926
490.2705181464436
444.6489966653314
403.8961610109466
367.3712252968875
334.5400348517095
304.9537316513062
278.2320495157859
254.0503595471059
232.1295609096037
212.2281275843083
194.1357996709719
177.6685381184966
162.6644572454067
148.9805194964661
136.4898287588768
125.0793978442859
114.6483018150839
105.1061602888684
96.3718776585857
88.37256657754568
81.0426136597052
74.32286487869355
68.1599160893884
62.5054959752694
57.31592880720549
52.55166606711308
48.17687740836536
44.15909268432849
40.46888778921052
37.07960803273674
33.96712389189455
31.10961408275929
28.48737073377653
26.08262442647984
23.87250430370188
21.83232120312196
19.94464390190947
18.19738951201884
16.5816407359159
15.09023637747854
13.7169470278316
12.45611115853827
11.30270508747944
10.2527839667415
9.3042118762418
8.457714983783529
7.718866482496465
7.103383390232905
6.618928461246839
6.242569175759414
5.950126239592054
5.679409626176896
5.297895531420976
4.623510239980578
3.866718806498466
3.583064038023651
3.551233500627945
3.549069394645002
3.548759131034193
3.548536888675305
3.548307150553411
3.548066278083737
3.547815037803955
3.547553529312642
3.54728193107973
3.547001628737956
3.546713483642108
3.546418663322076
3.54611854422618
3.545815173752342
3.545514956375063
3.545215051166896
3.544916886859812
3.544625155160902
3.544360122081399
3.544127499028487
3.543934134164183
3.543786379750723
3.543746536830896
3.546522529985214
3.985067489887254
8.483635767669089
16.87334349962617
27.40293786948492
1142178.270502129
209444.5701284182
73152.20364414222
35303.71687095031
20502.76782196697
13345.03837495283
9323.605590629631
6823.127519684916
5170.665734750092
4039.331920870724
3241.025471545146
2656.237107711429
2213.429801789149
1870.46114471639
1599.746590722171
1382.424223858018
1205.25671856286
1058.795361947166
936.1947777887192
832.4270854108222
743.7455413948805
667.3031050272164
600.864834368775
542.5724086601787
491.0029824695745
445.1350955049512
404.1829840826202
367.4969539375879
334.5356922907745
304.8446108780615
278.0388635028827
253.7901591899059
231.8164660445299
211.8739086351394
193.7503403345732
177.2602035107126
162.240386752235
148.546859752074
136.0519192803786
124.6419189667474
114.2153900400972
104.6814909601386
95.958720581729
87.97382357878382
80.66084371423193
73.96030181198097
67.81848139900775
62.18680743066678
57.0213053320584
52.2821296112529
47.93315263859711
43.9416053630266
40.277762740555
36.91466799828726
33.82789089909156
30.99531592640264
28.39695750497137
26.01480054618768
23.83005146028821
21.81999778862113
19.9636528554846
18.24654382345278
16.65846417217697
15.19161159706051
13.83942794554805
12.59595389827567
11.45564638249359
10.41358343728622
9.466025032269098
8.611234083533603
7.850705104878071
7.192080807012495
6.652908433774507
6.234272452759018
5.90934285903769
5.653954690472253
5.363630545278413
4.868893348384892
4.054918132963978
3.508139114826449
3.408149815333191
3.401143606838577
3.400586100449067
3.40035437454917
3.400126469470806
3.399887691862483
3.399638647228903
3.399379459570659
3.399110266728692
3.398832369240315
3.398546662731991
3.398254299440057
3.397956650123307
3.397655714585314
3.397357515368202
3.39705959861941
3.396763457401762
3.396473644478053
3.39620932429246
3.395977021777453
3.395785083408354
3.395631949231439
3.395631848936563
3.408543553362982
4.347508615033458
9.755463885695715
17.39690775473177
29.16882662921444
1142177.580907637
209441.0320928783
73144.14498591918
35293.80873045802
20498.92505891236
13355.60473409606
9348.565410864736
6855.852516999452
5203.510201981733
4067.868659895014
3265.058133270518
2677.022419380931
2231.280788823132
1885.640327860913
1612.555687264238
1393.172341650692
1214.241172825414
1066.281507555366
942.4120960293409
837.5725039236577
747.9889600941998
670.7923221082273
603.7285729796387
544.9187595661903
492.912836660585
446.6782802947264
405.4165469538912
368.4681678095974
335.2841314199922
305.4037021632656
278.4370556056857
254.0518185635738
231.9625760491632
211.9226237740071
193.7174319885994
177.1594229861298
162.0837643669039
148.3449529719946
135.8140201926244
124.3762292620664
113.9291671942907
104.3811647055022
95.64998279753567
87.66170019185891
80.34975451616232
73.65411129549643
67.52054209606621
61.89999660575607
56.74805587587603
52.02445483629223
47.69266505771392
43.71953006879436
40.07494571224435
36.73157985198635
33.66462515853861
30.85157977428629
28.27205213028754
25.90758597692894
23.74150360430414
21.75472195348814
19.92550023011967
18.23610721074961
16.67440307675624
15.23165307233044
13.90092005941927
12.67609862269289
11.55145446486796
10.52161122448329
9.581878448854159
8.728925465871367
7.961691443727977
7.28286666765239
6.703572228571656
6.240714571099389
5.883669905123224
5.610380715373747
5.366753077415762
5.010887022256999
4.311642203209506
3.538394456400809
3.293717549179723
3.271991643744864
3.270683467280529
3.270420374050458
3.270193016658348
3.269956517614006
3.26970995519629
3.269453403344846
3.269186967301164
3.268911874719495
3.268629051142486
3.268339640183777
3.268045009058871
3.267747122694171
3.267451686940825
3.267156581810609
3.266863353755971
3.266576473803239
3.26631420450611
3.266083274565851
3.265895760121018
3.265737948604137
3.265837021545604
3.310332018715172
4.924811152110936
10.76332571620739
17.6003515130366
31.10856041446143
1142177.036690285
209438.2337724746
73137.70800372346
35285.6649075847
20495.07171825899
13362.49168416119
9365.979195094833
6878.186363883712
5225.8599600844
4087.202135615272
3281.202161247408
2691.039242063052
2243.337711068373
1895.839311631327
1621.066284142799
1400.199687574688
1219.993441992812
1070.952364521413
946.1720517267622
840.5688882205876
750.3478697479516
672.6222353410277
605.1238234491292
545.9628789300017
493.6759686841839
447.2141673217474
405.7686649780421
368.6717846698072
335.3678468957466
305.3907397862378
278.3463055503367
253.8986870761221
231.7596728312205
211.6803161319445
193.4442905888949
176.8625798995019
161.7692005419326
148.0177307499723
135.4784717921828
124.0361085701092
113.5877699901174
104.0414152369832
95.31448770092275
87.33278016731373
80.02946497383876
73.34425825714578
67.22269591849083
61.61550458376693
56.47805391286364
51.76987931236622
47.45426470061782
43.49787636919736
39.87044143030869
36.54446376344801
33.49497359040941
30.69930783797742
28.13691740476616
25.78919885295009
23.63934912318495
21.67090949420278
19.86341074832405
18.19671233099941
16.65710208701314
15.23501128875202
13.92316317760356
12.7153668955084
11.60584990211554
10.58904638001564
9.659742988383748
8.813562964249099
8.047699700439715
7.362003503623138
6.761149060818854
6.260847514138471
5.870856043270551
5.570522727623454
5.337809406599634
5.064950509204265
4.539805151127622
3.682301325639895
3.219995121523837
3.159056209716592
3.155566337231976
3.155211043920258
3.154982874800993
3.154748798203024
3.154504908561602
3.154251200134185
3.153987749127143
3.153715721090806
3.153436068915679
3.153149934036005
3.152858683673331
3.152564259912526
3.152272106443734
3.15198039816567
3.15169073826808
3.151407547718119
3.151148450374938
3.150919572212747
3.15073916791034
3.150578226835987
3.150956490369077
3.269308539662877
5.624089748650977
11.48078321690696
17.68258649669453
33.05037193861438
1142176.464931368
209435.2921447668
73130.9106104877
35276.98475041946
20490.96863257249
13370.78602405842
9388.542568129556
6909.535034212257
5259.398587472968
4118.162504809477
3307.938338563886
2714.081174712703
2263.174595323118
1912.733118182115
1635.339277735547
1412.195833510318
1230.041032033454
1079.345574897791
953.167164020742
846.3860429786529
755.1763428594004
676.6246422617096
608.4372154949039
548.6944854056142
495.9144202642905
449.0394886900053
407.2466903115497
369.8571721196528
336.3062106599896
306.1203605878202
278.8994679951868
254.3027390920671
232.0378747934053
211.8525266700394
193.5275240920288
176.8714626120375
161.7163462651635
147.9140515316852
135.3334364682836
123.8579601634308
113.3837090165648
103.817750609235
95.07675443137143
87.08582944427833
79.77753497751726
73.09103167871189
66.97134856301753
61.36874892028187
56.23818044780882
51.53879568465261
47.23353123882423
43.28873727441005
39.67385069364662
36.36110695810049
33.32528503845133
30.54348084204887
27.99490605768815
25.66070904907626
23.52381499285805
21.56878194632284
19.77802233829317
18.13143406880296
16.6125870432089
15.210326977772
13.91671317880655
12.72539795778652
11.63066007288234
10.62696160136287
9.70892630017438
8.871623708635109
8.111192480647402
7.425630696175499
6.816175736554875
6.291298602791642
5.868953816513867
5.543316063625632
5.29799364715039
5.069493529114578
4.689443264217416
3.897079574214333
3.207567169811235
3.061992734282328
3.052648716711154
3.052042493844403
3.051806739997402
3.051574863512864
3.051333660935796
3.051082825616223
3.050822404498291
3.050553509447827
3.050277117366034
3.049994371246466
3.049706639652468
3.049415848693486
3.049127218666344
3.048839192769029
3.048553416233536
3.048274242146111
3.048019093541717
3.047792454483663
3.047620660922198
3.047458577401543
3.048654344404119
3.303489026021177
6.341735124164866
11.96342528198058
17.87468865098798
35.44182502096699
1142176.001186062
209432.9016238236
73125.34547976723
35269.73535691339
20487.15815021271
13376.86393824082
9406.395551216387
6934.358136944114
5285.594849486738
4142.009596060382
3328.164748139167
2731.210199983617
2277.656317053832
1924.80694724446
1645.299524692588
1420.352754749166
1236.685955908422
1084.73417989044
957.5154430032921
849.8733890854786
757.9515542007298
678.8122881721823
610.1438047708097
550.0144340596049
496.9263414711571
449.8027609258375
407.8090794101304
370.2571927913755
336.5749273202501
306.2828386063596
278.9759529137948
254.3096128105223
231.9884241158437
211.757560740736
193.3958712745374
176.710370960839
161.5318062375995
147.7110556391791
135.1161876508489
123.6300382255985
113.1482022343574
103.5773575358885
94.83385866078008
86.84255012581018
79.53575889962698
72.85243375381593
66.73740702066543
61.14075930183205
56.0172702599278
51.32593971613252
47.02956660678105
43.09437740337549
39.48969713938229
36.18765725952287
33.16293621456765
30.39252924739723
27.85554413809672
25.53302066128408
23.40777221907309
21.46425110111646
19.6871593496943
18.05733184484669
16.55603000712042
15.17071161383652
13.89280279644731
12.71583080596284
11.63418946460858
10.64248145520262
9.735329853050338
8.907525291517192
8.154492763426855
7.472959365315582
6.861965216783849
6.324924985868748
5.876061095801646
5.525946968371268
5.258943129203554
5.048117752689135
4.764466554637931
4.121925173441336
3.274043545203623
2.984125584775936
2.960083701993157
2.958832746978809
2.958575297507768
2.958345177709965
2.958106663577731
2.957858706844496
2.957601317694815
2.957335558303774
2.957062424917432
2.956783063185553
2.956498841934095
2.956211674061016
2.95592658351997
2.955642253193133
2.955360378046251
2.955085148554878
2.954834277913574
2.954609691005363
2.954446509172904
2.954284649603826
2.95775882376075
3.422850812897318
6.999455503909244
12.19109908363982
17.61433107930805
35.41859746514587
1142175.487579258
209430.2436772981
73119.06539467858
35261.21390314367
20481.7451556078
13381.91012472191
9425.471005622032