/*--------------------------------*- C++ -*----------------------------------*\
| =========                 |                                                 |
| \\      /  F ield         | OpenFOAM: The Open Source CFD Toolbox           |
|  \\    /   O peration     | Version:  v1812                                 |
|   \\  /    A nd           | Web:      www.OpenFOAM.com                      |
|    \\/     M anipulation  |                                                 |
\*---------------------------------------------------------------------------*/
FoamFile
{
    version     2.0;
    format      ascii;
    class       volScalarField;
    location    "0.00000125";
    object      omega;
}
// * * * * * * * * * * * * * * * * * * * * * * * * * * * * * * * * * * * * * //

dimensions      [0 0 -1 0 0 0 0];


internalField   nonuniform List<scalar> 
44064
(
1142211.477493963
209718.7237490248
73580.60577273183
35535.14265042369
20333.83827383202
12913.1265991907
8834.300019072896
6411.467585952078
4864.368630629348
3811.749437706867
3064.147314927603
2514.590372213849
2098.756900834191
1776.216462656745
1520.631215888184
1314.313843118953
1145.06475337866
1004.26589513368
885.6962445947822
784.7760817545563
698.07345836723
622.9749280593007
557.4613060826994
499.9518068739049
449.1935708931999
404.1820828148906
364.1032428011858
328.2910383358459
296.1967086120084
267.3649628324645
241.4139199727593
218.0190983662984
196.9016895680077
177.8198196586064
160.5618370675766
144.9410991440487
130.7920340748826
117.9675007525421
106.3375314375985
95.78821131227626
86.21941009261889
77.54234785390778
69.67784802582794
62.55502210157349
56.11020598490134
50.28600628512331
45.0303498265449
40.29548687990804
36.0370140768524
32.21318221686292
28.78503837376698
25.71876662939654
22.99301533059016
20.60054433017267
18.52957409343934
16.76161762556093
15.28468590245574
14.03995239073133
12.9600644157997
12.02401927321701
11.22423935365791
10.5487443188789
9.982959851450186
9.511251741139993
9.114308843405881
8.785301875190001
8.516246800447007
8.294604211072921
8.130087161592165
8.039482012680645
8.0045120828586
7.992856011463046
7.989737162112902
7.989127022682449
7.988864260927584
7.988759449635355
7.988757919065901
7.988750569061918
7.988742914713663
7.98873871785735
7.988733434818912
7.988727639715809
7.988721698905427
7.988715696992147
7.988709513910603
7.988703249763343
7.988696973374858
7.988690745736169
7.98868451860275
7.98867890762559
7.988672770176934
7.988666787454208
7.988661798095618
7.988656744613504
7.98865203028359
7.988648489305279
7.988645274845055
7.988641217472712
7.98863899436201
7.988637738235095
7.988636376542933
7.988635476253661
7.98863512904467
7.988635509466379
7.988639836300961
7.989816764434744
8.280721702739124
32.56475998340553
1142168.744576053
209395.3169663
73033.81336341622
35136.13855243474
20380.44604234715
13420.99533518565
9741.589429748959
7656.058943006744
6420.028131200801
5661.533354169717
5177.042933402005
4848.002864207505
4599.814556524831
4383.317860617573
4161.554657696523
3903.598731836163
3586.977585712813
3211.120066882655
2797.409013546544
2373.347984190993
1964.841692054331
1594.887209389254
1281.591679461402
1031.974001681802
839.530475691682
690.7488183652385
574.4357591886919
483.3200250468042
410.9406957082414
352.5663233186809
304.8310928011969
265.31263823635
232.2386391345382
204.2909168729942
180.4735311197702
160.0228079973471
142.3451349148567
126.9732804104498
113.5352572777291
101.7317272057594
91.31947846539383
82.09923698639054
73.90652579482961
66.60472106169456
60.07968892840112
54.23562518025562
48.99180140865682
44.28001733934526
40.04260808580919
36.23090738937338
32.78415359598406
29.64167825255604
26.76671991100898
24.13875424715118
21.74698482117734
19.58582526366028
17.65141859751768
15.938891208338
14.44183992681323
13.15085017837539
12.04540953289716
11.09360878781973
10.27804060616008
9.594113940415124
9.030951879641661
8.571530806677069
8.189949582976881
7.841182603501792
7.482957651311979
7.133200270427948
6.873690866787213
6.767190970770415
6.742140847552834
6.738105682798982
6.737216610737159
6.737035064695577
6.736909788896684
6.736810758713085
6.736705385368825
6.736588775054273
6.736462486844307
6.736326389515908
6.7361798172688
6.736023086953068
6.735856895898016
6.735681826348782
6.735498576738738
6.735308041100038
6.735111082375703
6.734909376007288
6.73470439124953
6.734493536184605
6.73428009092104
6.734067597795638
6.73385785333743
6.733654800584171
6.733459666231393
6.733279265992818
6.733142722050137
6.73302652566013
6.732934204739088
6.73287170885951
6.732845718210672
6.732866155564691
6.732963296187013
6.736869984868359
7.370894252433136
26.0127645382109
1142196.767872427
209542.2687702423
73393.95879200364
35677.91354153536
20902.27269694698
13645.1160368721
9497.783033021009
6916.724260241142
5230.249113596794
4087.368006579758
3279.083461751399
2685.688031145517
2237.958098813473
1892.211881378955
1619.610073027329
1400.575524298808
1221.53043420279
1072.893433360373
947.8064245447977
841.2902189554754
749.6652409522205
670.1633649691237
600.6782932555184
539.5899827293042
485.6257484664379
437.7610888349268
395.1583130381793
357.1263217088148
323.0833372389991
292.537961185414
265.0723856667333
240.3292691495147
218.0013183268822
197.8229360135095
179.5634725527339
163.0217292831542
148.0214422784809
134.4075431501926
122.0430517012926
110.8064973444592
100.5897877550258
91.29645281305237
82.84019292127586
75.14367698467721
68.1375447813907
61.75956970000301
55.95393418951231
50.67055831686833
45.86440642723645
41.49468978461187
37.52390423496088
33.91692418698517
30.64037653683082
27.66294346657685
24.95679845357917
22.49894761751538
20.27173072100621
18.26232720359902
16.46110565130318
14.85931895364142
13.44783511740496
12.21789195318977
11.16062631428673
10.26372071056979
9.510557006627472
8.885664131425051
8.374009812048724
7.951314637002326
7.583796282844538
7.199688813510695
6.755558898446871
6.313850449758518
6.017897428637372
5.91247782015519
5.89015353416237
5.88663810319524
5.886059613529127
5.885880576844194
5.885749839923297
5.88561659158667
5.885474216787776
5.885322123193451
5.885159790141479
5.884987460181341
5.884805357164354
5.884613760415554
5.884413068501853
5.884203874727917
5.883986666138362
5.88376271098213
5.883532105776439
5.883294411311381
5.883052947100617
5.882809783890337
5.882566668728542
5.882330597842965
5.882106165686646
5.881893762789523
5.881722131554466
5.881573799448863
5.881454107344842
5.881371382823438
5.881335343375694
5.881359307930333
5.881503339866308
5.891112889688306
7.285760812758017
39.86687040897439
1142193.902185701
209524.941102759
73335.85713483929
35538.34525833199
20652.50797762827
13327.03474944467
9181.61791635004
6637.346824059075
5003.799605283337
3906.650589167579
3133.19609596977
2566.183432296179
2138.508605571746
1808.190826234251
1547.736160655962
1338.573249825064
1167.845249539216
1026.459460320165
907.8551932744725
807.2073987207943
720.911381471789
646.2445848307325
581.1302001370613
523.9612119272634
473.4712443882124
428.6406790570796
388.6174310381379
352.7242670895956
320.4458710212178
291.3608858177977
265.1091953377443
241.3808683056172
219.9076217405625
200.4561848070732
182.823114135683
166.8172319486558
152.2577561032119
138.9886885032629
126.8779084455932
115.8126206787961
105.6949377404962
96.43867440880693
87.9671622013537
80.2117111620951
73.11044510349114
66.60733629295443
60.6513694117719
55.19582643608512
50.19771139542161
45.61736458876489
41.41837249684456
37.56795808330911
34.03759848205411
30.80285259947843
27.84225956587154
25.13653206673687
22.66850962051519
20.42342816036734
18.38912654705987
16.5558551444483
14.9153780201014
13.45994113854782
12.18371859742725
11.08400096274348
10.15328557871046
9.374739967701849
8.727759094744176
8.192393214326287
7.751147883254638
7.377511167644796
7.01096304665342
6.566619224589182
6.041991834968874
5.575366455823838
5.341413731255433
5.28357778581248
5.274534278286497
5.273287146292513
5.273015425944943
5.272841515382468
5.272673389932717
5.272497851276597
5.272310606248752
5.272111915816608
5.271902924088025
5.271683833204702
5.271455072045304
5.271217433379898
5.270971562849941
5.270718791246841
5.270459164981419
5.270197796523108
5.269933934534184
5.269668958145415
5.269404709743008
5.269147223085305
5.268900630767144
5.268665968266123
5.268468969679303
5.268299385411494
5.268163236389439
5.268069923806362
5.268031015111077
5.268061341028757
5.268271287140642
5.286412820827051
7.33680367895947
36.43437519224741
1142191.408954561
209510.844508053
73294.36577884047
35453.28797352104
20524.66850864178
13188.69248727777
9052.290554553319
6530.003462707986
4915.587120806922
3833.059606404374
3070.900323600907
2512.726141113223
2092.149914542718
1767.678203155177
1512.146639222382
1307.204553917099
1140.143026310348
1001.972715790399
886.2163454221044
788.1280093796911
704.1752481626783
631.6864486031966
568.6037769208043
513.3040051459815
464.4612504494156
420.9900095870539
382.0943694941789
347.1918802871576
315.7932588517177
287.4841379755789
261.911036963348
238.7703761272227
217.7998052918249
198.7713039349237
181.4856466735445
165.7679276885852
151.4639469678366
138.4372906686042
126.5669303592439
115.7452284984411
105.8762771587996
96.87461773500644
88.66436750460528
81.16856666597754
74.30603130064131
68.0051837620416
62.21000769406146
56.87494365276828
51.96152185962394
47.43619998975462
43.26898395216001
39.43257254212953
35.90187964760828
32.65380319316864
29.66712036480543
26.92242815931445
24.40208069267081
22.0901262357213
19.9722931768224
18.03615766942988
16.27176164685486
14.67246789716195
13.23497898292211
11.95839322950198
10.84455059070235
9.896994756581902
9.108762758989993
8.460114130248973
7.928383729500784
7.49236887605582
7.126595245723522
6.78400893833984
6.369063585178415
5.823759106124585
5.25485963016382
4.915271358168093
4.825587016670943
4.812712610347835
4.811180377651899
4.810895215955865
4.810710604514767
4.810520600684376
4.810322430398315
4.810114860631356
4.809895293597934
4.80966469801526
4.809423738388557
4.809173001777603
4.808913002798793
4.808645097073592
4.808370007796781
4.808092733321534
4.807812587978185
4.807530885907202
4.807249591569405
4.806974323257865
4.806709057053238
4.806455434080762
4.806237213343618
4.806049142067129
4.805897888864927
4.80579370498477
4.805749655577682
4.80578015958527
4.806064065380644
4.835007368583306
7.554559572844577
47.62988386800731
1142188.945611845
209498.6587376714
73270.13938303028
35433.76421131199
20533.14897714858
13221.30511061218
9096.068423582246
6567.690899123218
4941.913948606274
3851.064646892318
3083.902395342042
2521.977800942901
2098.536689267885
1771.918610107228
1514.812877690116
1308.739927764373
1140.885316518881
1002.178542925883
886.0829993771432
787.8107396713012
703.798580098953
631.3480591815738
568.3691355090886
513.1886440382641
464.3838367641508
420.9043602249475
382.0323384898943
347.1737388060975
315.8306782590978
287.5825309998583
262.0712761900747
238.9900636576265
218.0742166790508
199.0940944471934
181.8493842218081
166.1645001314528
151.8848475329558
138.8737677032703
127.0100189429943
116.185685634023
106.3044351415769
97.28006178966585
89.03525311527015
81.50052171858883
74.6133314425154
68.31743750676854
62.56235009539633
57.30287664524371
52.49772581948874
48.0955335136235
44.0435115010964
40.30347437299029
36.84723150162444
33.65281229926752
30.70189332434421
27.97818290750195
25.46656366316833
23.15278462878753
21.02351044484325
19.06657114770853
17.27128176917322
15.62872828952836
14.13193862063887
12.77596707834687
11.55815488651978
10.4789588122635
9.543787650738292
8.760475042503113
8.121446280942562
7.604537142434148
7.186554158614361
6.839648175404831
6.51729892750303
6.126103085862021
5.572932149358329
4.944858548312328
4.558816210420228
4.463136100850609
4.451319822921372
4.450056055122945
4.449788608356416
4.449591958692452
4.449390883351625
4.449178289270566
4.448954412575478
4.448719388792616
4.448473519469733
4.448217509599883
4.44795187458069
4.447678008042512
4.447396855277451
4.447112528288973
4.446825022320751
4.446535639391437
4.446246420180037
4.445962423178741
4.445687503954178
4.445423680351482
4.445192982959699
4.444993627197735
4.444832602525292
4.444720903352363
4.444673764909727
4.444701244465184
4.445070868354785
4.486348478416841
7.669877686600578
41.67687434581747
1142187.30401548
209490.1226799916
73250.03500172171
35405.73804256531
20508.55886553468
13207.16561418467
9089.164682077741
6562.336350478968
4934.91398759723
3842.95520359638
3075.639056231243
2513.740010484393
2090.455759944359
1764.120950187693
1507.403590174704
1301.795867394798
1134.456070767981
996.2907399055305
880.7454031510852
783.0189914138494
699.5389716199204
627.5997114626247
565.1036873632047
510.3670155962815
461.9637639810841
418.8483446233696
380.307229371285
345.7478428024567
314.6739103270656
286.6665508391943
261.3695611931747
238.4779268208201
217.7287808626959
198.8942340267069
181.7756439081448
166.1990003017899
152.0111800350236
139.0768853348067
127.2761243713156
116.5021235286337
106.659590240842
97.66326663455173
89.43671266405686
81.91126450471836
75.02513565002464
68.72263839390321
62.95350703252652
57.67230597092558
52.83790709284278
48.41303078560262
44.36404780564914
40.66115616473171
37.26641849443076
34.13871388475447
31.24790578408579
28.57257892521848
26.09673681898721
23.80743276327921
21.69327562847308
19.74367298599488
17.94862116581887
16.29884071006837
14.78608818851134
13.40352815181062
12.14612081895101
11.01105108246989
9.998203298275913
9.110696357786473
8.357238727410458
7.742699894118249
7.251742977149767
6.859893419058551
6.53623372080811
6.231467317304932
5.846634067489101
5.268577883757838
4.6047475431269
4.240977164702531
4.167869484000565
4.160436178218938
4.159678890673169
4.159443265203215
4.159236935010108
4.159023334383661
4.158797720217575
4.158560785585753
4.158313012093993
4.158054962231492
4.157787133731226
4.157510847225234
4.157227023180758
4.156939330043148
4.156648368306481
4.15635544752128
4.156062558729658
4.155774531081853
4.155495083076767
4.15522636369954
4.154989041427563
4.154783707766423
4.15461754884682
4.154501777477696
4.154452749758629
4.154477965744594
4.154951399977998
4.210011596075166
7.798503739115178
40.09642378285878
1142185.815277537
209482.7299731836
73235.07285736396
35393.00809323805
20513.4980532849
13229.5035364184
9121.202736517269
6594.191551774266
4960.130054197333
3862.204668474687
3090.919832188831
2525.818778046879
2099.882097382141
1771.393394787322
1512.95595170592
1305.987482462633
1137.576348929591
998.5703483667223
882.3687075647651
784.1348846792939
700.2686050951485
628.0402828276448
565.3276556528908
510.4149567517052
461.8736510497898
418.6643839961817
380.0636996934847
345.4710142825606
314.3837762237569
286.3781791416387
261.0941381054366
238.2235693166948
217.5011743947661
198.6971359269259
181.6112822538094
166.0683900442553
151.9143744094453
139.0131763226806
127.244201718058
116.5002003229735
106.6855012558603
97.7145449714375
89.51065049731304
82.00496187321792
75.13553904983989
68.84657051061394
63.08769011708787
57.81338318814037
52.98246859467403
48.55764584332918
44.50509758918329
40.79413663403241
37.39689038433301
34.28831126000107
31.44103565321217
28.82202049601636
26.40180011709545
24.1603142261507
22.08361743339636
20.16125942341416
18.38453574863695
16.74552356795409
15.23674394621867
13.85125793375411
12.58301845832108
11.42735386040245
10.38151068846937
9.445257319700296
8.621593518884749
7.918033438468905
7.343575921800162
6.888776467482166
6.529728966407061
6.232638839393663
5.939077473549733
5.536728409077369
4.903801888878602
4.240735936571991
3.964222261470843
3.924429590130583
3.921066511024421
3.920657663709123
3.920441708133048
3.920226625474041
3.920001155599312
3.919764431043415
3.919516694748031
3.919258607620428
3.918990673494077
3.918714154375083
3.918429941990037
3.918141347949287
3.917849417698677
3.917555476993819
3.917261532556589
3.916972180291228
3.916690962755217
3.916420162651008
3.916179306863297
3.915970734494381
3.915801865433584
3.915683289136
3.915633939117741
3.915657174679937
3.916254222939558
3.98671906218959
7.903673806207983
35.65631781385238
1142184.49975302
209476.1203995174
73221.11955328168
35379.23111865087
20514.26896180501
13248.9331427523
9150.272547014276
6622.219571984027
4981.575844508841
3877.665176847112
3102.542542564531
2534.978639025496
2107.181794471068
1777.233038985384
1517.650294336846
1309.789585778188
1140.686860205304
1001.146046768671
884.5313391677846
785.9792576813929
701.8688613413492
629.4533387133384
566.5927118224055
511.5472445184587
462.8877120801533
419.5819156354677
380.9009458371849
346.2402200262475
315.0942755297382
287.0372201718835
261.7074763684113
238.7958869934929
218.036374898016
199.1985491894445
182.0818061988191
166.5105865368772
152.3305328737317
139.4053545498259
127.614250565178
116.8497770908661
107.0160750909362
98.02739725253758
89.80687342690966
82.28545724490769
75.40101743696617
69.09755050925381
63.32449739545532
58.03614900054477
53.19112767813967
48.75193387372921
44.68454856468843
40.95808334769527
37.54447124896463
34.41819237545149
31.55604229242099
28.93715490217186
26.53912872657109
24.33386691118607
22.29573254818089
20.40770226989465
18.65835217420342
17.0393836825145
15.54399421612924
14.16601772119134
12.8996839254827
11.73980899553833
10.68224811343194
9.724501697386005
8.866441303616996
8.111179570723889
7.466286048587898
6.94203344078063
6.530831204925033
6.209003376700617
5.938063899261437
5.643433813729505
5.186487860922949
4.473760516372683
3.892858719124026
3.736842461168952
3.721483598039037
3.720274037642241
3.720011102587486
3.71979547710814
3.719570914621635
3.719335297969221
3.719088811900348
3.718831992202484
3.718565328398268
3.718290035525876
3.718006978379424
3.717719172920197
3.71742799463853
3.717134788156332
3.716841502100682
3.716552584904947
3.716271483533594
3.716000517132065
3.715758261113738
3.715548346599411
3.715378500448632
3.715258416237361
3.71520963367387
3.715231115076735
3.715975537911312
3.804361452168149
8.077882260393022
34.12126834381036
1142183.327672615
209470.2765161807
73209.10424774892
35368.72469036779
20519.7678552834
13275.38151772865
9189.82724866838
6665.101257546743
5019.557415913001
3908.158387250347
3126.427133601189
2554.007110915766
2122.343275208836
1789.309178438122
1527.27860162312
1317.478301367234
1146.834885797229
1006.065165745163
888.4665749045542
789.1254892210374
704.3832107864112
631.4633871771409
568.2006074356104
512.8291011193219
463.9075963994216
420.3961991482446
381.5539016467102
346.7666746764537
315.5216671922463
287.3872007398316
261.9971558645011
239.0387978269796
218.243222304725
199.3777975002141
182.240138695083
166.653267531088
152.4616935745213
139.5282190740013
127.731314875719
116.9629504833654
107.1267906547556
98.13669563815908
89.91546684497436
82.39378018472871
75.50926718903158
69.2057196926518
63.43239989289694
58.14344097756127
53.29732479328398
48.85642518244642
44.78660780651564
41.05687856560152
37.63907391688921
34.5075874434312
31.63912793305888
29.0125050326486
26.60847139843217
24.40974958401658
22.39405382473042
20.53589683356113
18.81612106314838
17.22234893178805
15.74635011776915
14.38203532571277
13.12422597707912
11.96812289698062
10.90932360296633
9.944225454820696
9.070700256996696
8.289010073902128
7.602935731929023
7.020974483507577
6.553073638136275
6.190325919993933
5.907480529983379
5.657237086436243
5.33521565863412
4.768365971299465
4.007670233980475
3.613805804291714
3.55377182532955
3.54939266729106
3.548953041752483
3.548729055313716
3.548505940998808
3.548272220234543
3.548027627569696
3.547772756240822
3.547508091534769
3.547234811694384
3.546953759785417
3.546667705746817
3.546378277647142
3.546086841857455
3.54579534193784
3.545508054321663
3.545228291368832
3.544958431990845
3.544716232296079
3.544506259793119
3.544336703691087
3.544215922939195
3.544168787899067
3.544188639261461
3.54510858106655
3.655176988645638
8.336256410066719
33.44711323981026
1142182.270735555
209464.9212108872
73197.44328932501
35355.96998261161
20517.28583020392
13288.63357041155
9213.469248937738
6692.569224608013
5044.721464645525
3928.819352182414
3144.08522036159
2569.472398899145
2135.770940044208
1800.872570439628
1537.198275019751
1325.980801933911
1154.127981102567
1012.329427329221
893.8556965474789
793.7699870532383
708.3944676038168
634.936318090756
571.2137352334076
515.4398417904944
466.1682589488473
422.3586702895202
383.2608899450382
348.2536812504138
316.8184693319511
288.5189812939181
262.9853801916564
239.9018930079423
218.9971075446514
200.0363020199162
182.8153337617709
167.1557323086864
152.9007297555789
139.9120256731525
128.0671316064001
117.2571762806731
107.3850812775069
98.36404107369918
90.11625191087518
82.57183591685757
75.66791808757898
69.34782766462718
63.560404062319
58.2593924786886
53.40291693027277
48.95301984151386
44.87525871359271
41.1383518537747
37.71386636790091
34.57594261159518
31.70105014415522
29.06777099952639
26.65660596627483
24.44982161528001
22.43138998926398
20.58500512045905
18.88880968749114
17.3214460509224
15.86938156442274
14.52417452044579
13.28015184062412
12.13287767700854
11.0783847286385
10.11304736008288
9.233949243723529
8.439636419775633
7.731226005311715
7.113706056718157
6.596930849220907
6.188626504680361
5.876782392630593
5.630466545718112
5.380031450716818
4.980292239510991
4.25987462049241
3.597788284404742
3.417657756269532
3.401929596426069
3.400856703504367
3.400604255633121
3.400381635857709
3.400149954318903
3.399907638113281
3.399655133514766
3.399392914245534
3.399122128393093
3.398843601346139
3.398559894472373
3.398272832091275
3.397983806392769
3.397694707922218
3.397409707065235
3.397132045692695
3.396864101503531
3.396622957012881
3.396413829507155
3.396245498672505
3.396124833010368
3.396079987766136
3.396098574311857
3.397224879271609
3.534091238655358
8.685136698604829
33.89400528416192
1142181.391000795
209460.4751632938
73187.81949503675
35345.72563704403
20516.38262434134
13302.05846173742
9235.61517094088
6717.662501283059
5067.940486854475
3947.968494662285
3159.871858452276
2583.092722273337
2147.487118490464
1810.865163071006
1545.665547334983
1333.124833927222
1160.138025342512
1017.374400530861
898.0829399566247
797.3069606555201
711.3514109164018
637.4088938306518
573.2850567684992
517.181452926365
467.6402165368073
423.6095206332808
384.3296919503687
349.1719804639088
317.6118181278115
289.208126377707
263.587211602368
240.4302009510657
219.4631867729402
200.4494352311303
183.1831790099184
167.4846342191321
153.1959700651024
140.1780252922793
128.3076139266341
117.4752992912565
107.583543772559
98.5451651756961
90.28204455147923
82.72403421465896
75.808024209528
69.47713679295391
63.68002657073121
58.37027152717458
53.5058429723599
49.04864288336915
44.96409847441255
41.22080586126103
37.79021611311187
34.64635803272434
31.76559280008927
29.12639626695447
26.70916656697723
24.49605341778067
22.4708159714917
20.61878819647257
18.92644633937341
17.37431214659733
15.94157086573312
14.61498436768602
13.38640460422461
12.25057581194792
11.20356495747671
10.24194216181569
9.362636849999664
8.563352120410107
7.843450247659339
7.205291364013732
6.655483362272122
6.205053193584944
5.857153398842653
5.595174860382313
5.372454467598946
5.082429299692733
4.523175220255405
3.718153053687697
3.32497945431004
3.27422051891933
3.271067711902487
3.270717295443793
3.270492841752343
3.270263456837062
3.270023652290225
3.269773767945951
3.269514263569721
3.269246262242002
3.268970575057346
3.268689584486005
3.268405269576014
3.268119048991559
3.267832805407189
3.267550579684994
3.267275514356465
3.267010009690825
3.266770585898496
3.266562873049482
3.26639642048249
3.266276225541746
3.266234566191859
3.266251914488455
3.267615843613446
3.437809540061785
9.082632874827741
33.69498582704432
1142180.473836954
209455.8518492253
73177.88918514244
35335.5872525101
20517.56761011375
13322.04502535626
9268.620674703645
6755.524324185587
5103.92101912855
3978.677527578788
3185.674242400999
2605.038042416641
2166.057349220711
1826.518729685714
1558.850178140117
1344.242959655393
1169.533292680759
1025.33326805514
904.8425941577577
803.0643998642669
716.2711378021191
641.6278539992774
576.9137577323436
520.2986654766432
470.3162965080381
425.9138172345612
386.3188142847902
350.8925314701974
319.1024738166745
290.501215985338
264.7099436258463
241.4056217829693
220.3109343985347
201.186335342218
183.8237196427352
168.0413463779873
153.6797347573587
140.5983226712245
128.6727269555032
117.7924814269414
107.8591576908865
98.78479683581355
90.49059613751821
82.90580136314792
75.9667614409212
69.61611301940724
63.80207283913772
58.47782290263037
53.60097613316516
49.1331106927395
45.03936214906882
41.28806468475342
37.85043443041946
34.70029031069048
31.81380711024657
29.16929560984966
26.74700610408545
24.52895300392762
22.49875911412917
20.64152282924598
18.9437783164902
17.39349724614355
15.97334089560345
14.66387095432393
13.45201903737598
12.33001007578195
11.29309886968559
10.33792217575562
9.46164208182284
8.661826213164874
7.936959790202914
7.287520734104928
6.717571475995995
6.23558734198532
5.852096292370948
5.564193634857095
5.343301922299251
5.114356861677714
4.712257179331147
3.939322528248089
3.301691717866306
3.165609499895351
3.156197025346864
3.155553803965458
3.155318933750601
3.155091433736912
3.154854176793607
3.154606970198714
3.154350253811909
3.154085129524154
3.15381239663906
3.153534281747531
3.153252887048323
3.152969659174025
3.152686434596768
3.152407173712565
3.15213497003038
3.151872187870242
3.151634906163244
3.151428957337675
3.151264791768524
3.15114531311572
3.151107425062061
3.151123551188522
3.152757171077452
3.364784262519738
9.485258753910994
32.00246394353209
1142179.687102872
209451.8738285186
73169.27266911356
35326.54762241819
20518.03404009366
13339.17621940279
9297.516119675845
6788.674927021736
5135.794360700505
4006.127198976752
3208.763456933724
2624.614868679167
2182.711136163532
1840.633946683211
1570.780545380157
1354.313522721423
1178.030240536875
1032.501750311994
910.8900530501493
808.1659709315862
720.5752830575642
645.2614925888226
579.9864914512632
522.9049920160498
472.5354295425762
427.8106841488973
387.9460782256913
352.2931405677429
320.3116437790771
291.5479762835388
265.6183514946993
242.1957178201188
220.9994978871201
201.7874835672533
184.3493854650389
168.5016605292944
154.083334650069
140.9526040801078
128.9840499046331
118.066339234338
108.1003156264458
98.99740489315057
90.67827923698854
83.07173050447338
76.11370974154462
69.74650046494502
63.91800328285105
58.58111625019085
53.69319776614992
49.21559903342389
45.11325451529666
41.35432143544841
37.90986147324173
34.75355668825122
31.86145606273656
29.21175112912447
26.7845764542979
24.56183168754531
22.52702255352926
20.66511948633877
18.96243285816354
17.40658506494156
15.98646785749441
14.68643471972685
13.48857420442418
12.38065389123516
11.35551583332451
10.40891938531022
9.537962758089755
8.740306713120523
8.01416462262722
7.358979248010693
6.776761340936145
6.273759244506401
5.860214513893058
5.54334139064614
5.310189694277415
5.10851138465686
4.814912736584016
4.184048506286808
3.37266964233197
3.080609989607719
3.053914141234327
3.052437776999185
3.052171194146128
3.051944997125153
3.051710340136882
3.051465889753957
3.051212041865208
3.050949877629376
3.050680186327951
3.050405057637796
3.050126692684008
3.049846565532643
3.049566503804073
3.049290363047439
3.04902116687085
3.048761253494309
3.048526353771406
3.048322318789684
3.048160692885399
3.048041865378389
3.048008249383825
3.04802290454615
3.049968913449149
3.316669414994447
9.870715821975836
28.77574828133301
1142178.952127413
209448.1462834413
73161.08403390988
35317.5741565428
20517.5100059141
13354.82995733611
9325.6624563851
6820.851583646756
5166.070773663389
4031.59266926577
3229.829921608171
2642.626358776907
2198.469879436023
1854.402711571159
1582.729753829888
1364.61634719001
1186.867393993205
1040.051688330202
917.3213360725751
813.633589825043
725.219776225151
649.2092943036628
583.3498076236266
525.7793201217756
474.9950848347825
429.9208604051335
389.7599764206221
353.8545864229287
321.6570544262807
292.707849811168
266.6184010301349
243.0577562377689
221.7421342440201
202.4266761403005
184.8988846413795
168.9733661435408
154.4875850042642
141.2984103205609
129.279287798737
118.3179071010997
108.3142653244147
99.17905053357465
90.83228581144699
83.202185218604
76.22418008603638
69.84008313636562
63.99736788759951
58.64854665635426
53.75063233171286
49.26466896247372
45.15531926896527
41.39050082646512
37.94106405848936
34.78050754881205
31.88472501929424
29.23177820303797
26.8016926049171
24.5762740827016
22.53894491955516
20.67459807418669
18.96946938734562
17.41102698741288
15.98794847304123
14.69014788360301
13.50220663893944
12.40706308391704
11.39420053629244
10.45761975174312
9.593836786848643
8.800487298107766
8.075754825230291
7.418593689760413
6.829691446060068
6.313158695608585
5.877524478661258
5.533342795198931
5.280678966679491
5.085394458742678
4.856786142437393
4.384790390982268
3.533221605065215
3.031393191275957
2.963019887508212
2.959319328456234
2.95896447279367
2.958737425684959
2.958505261557439
2.958263535964813
2.958012532626573
2.957753310319629
2.957486650060663
2.957214518909754
2.956939197211851
2.956662186386718
2.956385273211663
2.95611224545139
2.955846102247127
2.955589095632588
2.955356714516228
2.955154648155697
2.954995719060495
2.954877444830946
2.954848499025768
2.954861390820173
2.957208404712435
3.301470354463621
10.25095410347716
24.92684379346678
1142178.232830483
209444.4944595745
73153.05679269195
35308.81207287597
20517.48536813561
13372.60755174636
9359.210910447828
6860.819189865054