/*--------------------------------*- C++ -*----------------------------------*\
| =========                 |                                                 |
| \\      /  F ield         | OpenFOAM: The Open Source CFD Toolbox           |
|  \\    /   O peration     | Version:  v1812                                 |
|   \\  /    A nd           | Web:      www.OpenFOAM.com                      |
|    \\/     M anipulation  |                                                 |
\*---------------------------------------------------------------------------*/
FoamFile
{
    version     2.0;
    format      ascii;
    class       volScalarField;
    location    "0.00000125";
    object      p;
}
// * * * * * * * * * * * * * * * * * * * * * * * * * * * * * * * * * * * * * //

dimensions      [0 2 -2 0 0 0 0];


internalField   nonuniform List<scalar> 
44064
(
0.06530041835553238
0.06530012514871872
0.06529983057788663
0.06529960149048611
0.06529953791279944
0.06529978926867409
0.06530045985919358
0.06530147004465972
0.06530262281381773
0.06530386959471683
0.06530526024194222
0.06530678571549051
0.06530841074229603
0.06531009882280961
0.06531181616551088
0.06531353221367754
0.06531522248431544
0.06531687228333058
0.0653184788615853
0.06532005095765735
0.065321606075181
0.06532316533463725
0.06532474616587169
0.06532635611144345
0.06532799236511795
0.0653296463641808
0.0653313081460682
0.06533296787423634
0.0653346164786075
0.06533624513664783
0.06533784322685014
0.06533939693845346
0.06534088909449937
0.06534229887948587
0.06534360124677217
0.06534476658584887
0.0653457618356134
0.06534655390386447
0.06534711219200619
0.06534740726341137
0.06534740705369065
0.06534707467279222
0.06534636909759699
0.06534524566153144
0.06534365569225842
0.06534154511952792
0.06533885194369972
0.06533550323974763
0.0653314138246632
0.06532648896632533
0.06532063185379376
0.06531378634567424
0.06530600685238902
0.06529748848383993
0.06528845724596892
0.06527874525354267
0.06526719316472888
0.06525252534541284
0.06523505540344239
0.06521571380211744
0.06519467007251077
0.0651716661112062
0.06514637297586691
0.06511839501845283
0.06508783973718252
0.06505699877528856
0.06502829997069141
0.06499967980566283
0.06496868579901466
0.06493401639858787
0.06489417469116011
0.0648493128930798
0.06480187019068569
0.06475181021363875
0.06469682873864269
0.06463735974037646
0.06457394114931252
0.06450608059596871
0.06443355138191748
0.06435623285775445
0.06427392985052446
0.06418648347016416
0.0640937764393515
0.06399572408480556
0.06389227586203747
0.06378343331378551
0.06366925875895063
0.06354988473126089
0.06342552687015866
0.06329650503196907
0.06316321270344427
0.06302641250421935
0.06288712036941406
0.06274625809597521
0.06260500405779885
0.06246466311663761
0.06232628849408999
0.06219203725572814
0.06206746676397468
0.06195885350173314
0.06187099242099572
0.0618099201578198
0.06178329544883008
0.06180093086211559
0.06187584323940991
0.06202690165576785
0.06227818599371741
0.06254637669520137
0.05774232796811279
0.05774234429601974
0.05774236249202388
0.05774237963935921
0.05774239431176485
0.05774240273307832
0.0577424016358208
0.05774239299345173
0.05774238481164675
0.05774238215868639
0.05774238423234474
0.05774239051045941
0.05774240192289485
0.05774241977806126
0.05774244574090374
0.05774248220295868
0.05774253254523261
0.05774260111810656
0.05774269350134407
0.05774281872518358
0.05774298991601825
0.05774321918847453
0.05774351207064841
0.05774386975778577
0.05774429416434746
0.05774478864628221
0.05774535717704516
0.05774600289407087
0.05774673013460533
0.05774754547663492
0.05774845650216114
0.05774947153867106
0.05775059974752735
0.05775185118720184
0.05775323686756557
0.05775476881847604
0.05775646017768418
0.05775832552371195
0.05776038191011734
0.05776264822449328
0.05776514415015304
0.05776789095234276
0.05777091177257033
0.05777423172338833
0.05777787792082329
0.05778187970154012
0.05778627041647427
0.05779109141645828
0.05779638305033652
0.05780211714384229
0.05780822470099003
0.05781476343577784
0.05782189976294864
0.05782978272465238
0.0578385169484185
0.05784817016440137
0.05785882222365468
0.05787065568339059
0.05788387795392791
0.0578985126793568
0.05791443539529874
0.05793180673747584
0.0579512551873585
0.05797344291628013
0.05799821745925354
0.05802295831109851
0.05804495543462265
0.05806613600536972
0.0580890215434772
0.05811506037338333
0.05814340189034263
0.05817380767056731
0.05820674944896932
0.05824181245998625
0.05827917046970769
0.05831909366961006
0.05836151047650727
0.058406243120993
0.05845333974281668
0.05850278390950431
0.05855448084989408
0.05860831953454317
0.05866414029632123
0.0587217304357916
0.05878082657425947
0.05884111362915856
0.05890222223381402
0.05896373197040221
0.05902517525126035
0.05908606437409913
0.05914584043606391
0.05920382933762262
0.05925935140049749
0.05931185558552599
0.05936101998215431
0.05940692530601208
0.05945004424086569
0.05949019454268741
0.05952572026677569
0.05955437771651156
0.05957518195832813
0.0595879605979151
0.05959201763929137
0.05958564082465026
0.0595642928299471
0.0595200799401835
0.05946823155763321
0.05932249269005602
0.05773188130453203
0.05773185245630971
0.05773181980790477
0.0577317868911443
0.0577317495569402
0.05773170015870402
0.05773162949236814
0.05773153239425582
0.05773141639505877
0.05773130202783985
0.05773120858781385
0.05773114766342493
0.05773113354797316
0.05773118778295529
0.05773133461795222
0.05773159699092675
0.05773199270063994
0.05773253065575819
0.0577332084113914
0.05773400993886479
0.05773490720538379
0.05773587013714555
0.05773687782185321
0.05773791971316992
0.0577389919844279
0.05774009527989254
0.05774123081384147
0.05774240037348866
0.05774360689809771
0.0577448531763388
0.05774614113497797
0.05774747190631908
0.0577488459766847
0.05775026330297083
0.05775172320317161
0.05775322305834813
0.05775475756181457
0.05775631973226746
0.05775790141363286
0.05775949314142435
0.05776108375194634
0.05776266015159146
0.05776420718810512
0.05776570759810068
0.05776714202328873
0.05776848904010337
0.05776972500225422
0.05777082313584134
0.05777175130954506
0.0577724708280645
0.05777294480853862
0.05777312947056423
0.05777295921907809
0.05777236239383491
0.05777127906040089
0.0577696655566443
0.05776748756960133
0.05776470064191842
0.05776122385628562
0.05775693754621811
0.05775173524333812
0.0577455892916301
0.05773854521349338
0.05773071167475105
0.05772216468311876
0.05771256607528838
0.05770124633533826
0.05768825306904761
0.05767405815510197
0.05765919962970363
0.05764524435615517
0.05763124280794169
0.05761681102628871
0.05760074155295393
0.05758249296952377
0.05756351340051067
0.05754357424494191
0.05752264492827961
0.05750088843098047
0.05747838324666908
0.05745524135130565
0.05743163266178045
0.05740774645366949
0.05738380593008639
0.05736007876748782
0.05733687145761858
0.05731452444660726
0.05729341092395528
0.05727392167277574
0.05725647918860483
0.05724150811750996
0.05722938572038686
0.05722045051976241
0.05721495063643191
0.05721299054847431
0.05721455686792835
0.05721975122928421
0.0572281013707999
0.05723803844386593
0.05724796868193747
0.05725708536350202
0.05726432935277864
0.05726822003176753
0.05726786885813748
0.05726253985371313
0.05724517600834536
0.05726527663348905
0.05708275730105158
0.05582511226512084
0.05582511793722843
0.05582512435012162
0.05582513077235993
0.05582513798073879
0.05582514767541125
0.05582516259016781
0.05582518575254716
0.05582521838520165
0.05582525912859122
0.05582530723311473
0.05582536449283908
0.05582543310909896
0.05582551456280317
0.05582561017489318
0.05582572142048772
0.05582584997100166
0.05582599761146619
0.05582616604443202
0.05582635697317014
0.05582657244063274
0.05582681503055415
0.05582708768378383
0.05582739272240864
0.05582773045760504
0.05582809878644633
0.05582849804219158
0.05582893491165231
0.0558294179180431
0.05582995360261481
0.05583054783653473
0.05583120731567098
0.05583193991813094
0.0558327542716095
0.05583365547364946
0.05583464295552376
0.0558357185131107
0.05583689122321298
0.0558381730817647
0.05583957595729839
0.05584111160635077
0.05584279219197425
0.05584463006295713
0.0558466332992827
0.0558488013138486
0.05585112824151173
0.05585360637721239
0.05585622470020493
0.05585896733939622
0.05586181413945962
0.05586474540108628
0.05586775032592466
0.05587083077768681
0.05587399289268784
0.05587723623478681
0.05588055258155495
0.05588392906139902
0.05588734947612618
0.05589079157100988
0.05589421559137969
0.05589754813558735
0.05590070070538189
0.0559036262939687
0.05590633245443295
0.05590883689284456
0.05591117445058746
0.05591350738051196
0.05591602411259184
0.05591847881939747
0.05592051963193765
0.0559227764960776
0.05592507091300086
0.05592545076604111
0.05592566013999393
0.05592707383014945
0.05592858794798831
0.05592976987221279
0.05593060953152965
0.05593111511109831
0.05593119258569348
0.05593073542512706
0.05592965013392643
0.05592782498988173
0.05592515492576359
0.05592153372776741
0.0559168574186884
0.05591103429679542
0.05590399381135791
0.05589568234864271
0.05588608850275922
0.0558752567611762
0.05586322394784451
0.05585000218343587
0.05583574806683594
0.05582063546900172
0.05580477273514215
0.05578855704251773
0.05577251480670306
0.05575685362215849
0.0557420641881432
0.05572907899780888
0.05571847914100457
0.05571056234731123
0.05570613028518267
0.05570709994426211
0.05569370589295553
0.05576439017695779
0.05566319718597219
0.05407047494345926
0.0540704809888469
0.05407048783422717
0.05407049469549392
0.05407050226110972
0.05407051179280516
0.05407052503078843
0.05407054378815858
0.05407056888852194
0.05407060024958543
0.05407063751348082
0.05407068127757004
0.0540707330856697
0.05407079389941284
0.05407086437920514
0.05407094514525684
0.05407103684071321
0.05407114016366548
0.05407125595195396
0.05407138531803413
0.0540715296794216
0.05407169050439999
0.05407186837496467
0.05407206112108698
0.05407226348902498
0.05407247467592458
0.05407270150386822
0.05407294978802504
0.05407322169473759
0.05407351889150429
0.05407384348099906
0.05407419788223935
0.05407458472258421
0.0540750067770609
0.05407546713843027
0.05407597073159878
0.05407652518637662
0.05407713960032767
0.05407782388889859
0.05407858918896698
0.05407944874016386
0.05408041761799525
0.05408150421861432
0.05408270263931886
0.05408400939503227
0.05408544180887458
0.05408702987310776
0.05408880579980676
0.05409080054833473
0.05409302764479312
0.05409548555494064
0.05409817604471562
0.05410110176927003
0.05410426105109385
0.05410764619571128
0.05411124153904991
0.05411501950431699
0.05411893572965147
0.05412292805842387
0.05412693000744268
0.0541309040969068
0.05413485786253838
0.05413880857505921
0.0541427436252332
0.05414660232314365
0.05415027484694932
0.05415370039955795
0.05415692048598286
0.05416006456971813
0.05416337136251381
0.05416681633726689
0.05417023796694567
0.05417352761749505
0.05417751892695793
0.05418202851195382
0.0541860970543671
0.05419029404391861
0.0541952985388171
0.05420068968293852
0.05420643641194892
0.05421266645527797
0.05421942468531761
0.05422670165630004
0.05423447585965941
0.0542427415483426
0.05425147315450163
0.0542606168577991
0.05427010327231519
0.05427983271795204
0.05428967720880986
0.05429949072029249
0.05430907245570519
0.05431820751295525
0.05432677368740315
0.05433464227123627
0.05434159659272642
0.05434755053575106
0.05435252918504756
0.05435638812953117
0.05435915238472942
0.05436107107027422
0.05436221898241183
0.05436252326253679
0.05436217565471101
0.05436835402209667
0.05433997465766988
0.0543984809883348
0.05433073420780748
0.05275390944020509
0.05275391507990897
0.05275392146808058
0.05275392785148962
0.05275393475661559
0.05275394304621321
0.05275395382239479
0.0527539683175602
0.05275398739076283
0.05275401138704693
0.0527540396610873
0.05275407220440044
0.0527541103425295
0.05275415484323168
0.05275420615183855
0.05275426468291293
0.05275433090020016
0.05275440534140446
0.05275448864917686
0.05275458159186468
0.05275468501324732
0.0527547994858367
0.05275492418399876
0.05275505544722345
0.05275519037488952
0.05275533313742314
0.05275548924367668
0.0527556600006725
0.05275584624625695
0.05275604918569262
0.05275627023198471
0.05275651090368225
0.0527567728298745
0.05275705776961537
0.05275736762522464
0.05275770445547971
0.05275807049249163
0.0527584681649963
0.05275890013578335
0.05275936935054756
0.05275987901070929
0.05276043232619233
0.0527610328448216
0.05276168931910035
0.05276242054423669
0.05276325173227718
0.05276421072521843
0.05276532366805996
0.05276659154628675
0.0527679970400187
0.05276955819706143
0.05277132592661651
0.05277332627384686
0.0527755552033855
0.05277800947462971
0.05278069163252525
0.05278360670392585
0.05278675970971176
0.05279015391641138
0.05279378732975086
0.05279764242559133
0.05280166643874586
0.05280575837061926
0.05280978337521641
0.05281362408430115
0.05281725756458091
0.05282071883047723
0.052823981683631
0.05282695130185303
0.0528296048759217
0.05283206382799062
0.05283458531636548
0.05283715868710447
0.05283980279707206
0.052842589223606
0.05284551122464743
0.05284807256461413
0.05285057049550565
0.05285356054982117
0.05285691685696221
0.05286051914148464
0.05286437422049731
0.05286855191588722
0.05287311838484465
0.05287809268502452
0.05288351170169361
0.05288941984502402
0.05289586247552277
0.05290287883488978
0.05291050501123237
0.05291878914486699
0.05292774072141983
0.0529373385284472
0.05294757994192757
0.05295842372656212
0.05296972963164616
0.05298137774191949
0.0529932567015737
0.05300508193930458
0.05301661070580389
0.05302763422540852
0.05303788538043649
0.0530469480041753
0.05305195415554545
0.05306903467105178
0.05304134479181787
0.0530970209286618
0.05295659981669469
0.05163443252372386
0.05163443736786555
0.05163444285408063
0.05163444832992257
0.05163445423677723
0.05163446130468512
0.05163447046249995
0.05163448272652853
0.05163449887644202
0.05163451924509754
0.05163454308978101
0.0516345703006981
0.05163460209170466
0.05163463913848097
0.05163468180366772
0.05163473041568842
0.05163478533917322
0.05163484698992211
0.0516349158556168
0.05163499250786518
0.05163507754610681
0.0516351712663461
0.05163527271967776
0.05163537898035492
0.05163548912398014
0.05163560696108173
0.05163573583428097
0.05163587665236601
0.05163603017789611
0.05163619742741561
0.05163637955151026
0.051636577778719
0.05163679342138598
0.05163702788690461
0.05163728268469244
0.05163755943238996
0.05163785986279279
0.05163818583148733
0.05163853932520781
0.05163892247123752
0.0516393375474142
0.0516397869905328
0.05164027340344703
0.05164079957888495
0.05164136856962286
0.05164198373111683
0.05164264832359775
0.05164336474054169
0.05164413884567543
0.05164500119016343
0.05164600264932869
0.05164716590289788
0.05164848578681635
0.0516499877809087
0.05165171689472391
0.05165368186641828
0.05165586978238982
0.05165827650843029
0.05166090701033466
0.05166376979668859
0.05166687155728758
0.05167021185253758
0.05167377843804684
0.05167754327299925
0.05168145364948872
0.05168540865225969
0.05168924213104056
0.05169280056007049
0.05169605215669681
0.0516990275044153
0.05170169881921285
0.05170413300681004
0.05170654207440765
0.05170898285360242
0.05171147660186785
0.05171406413364926
0.05171665437515834
0.05171926293479989
0.05172189665281227
0.05172451249002083
0.05172739135266079
0.05173052038433298
0.0517338858072125
0.05173747326833072
0.05174129857380961
0.05174537461809654
0.05174970364213909
0.05175429314774757
0.05175914846134047
0.05176426844974658
0.051769666550619
0.05177535136356123
0.05178132749052321
0.05178761920038309
0.05179425030245656
0.0518011988472394
0.05180844337965674
0.05181598327237866
0.05182370397861878
0.05183150287216462
0.05183921517843967
0.05184667536057044
0.05185428544015293
0.05185563469748206
0.05187555379653026
0.05184559369479353
0.05191821762811661
0.05172356642781218
0.05059059445859482
0.05059059926763844
0.05059060471444443
0.05059061014296821
0.05059061595134769
0.05059062275612919
0.05059063128467244
0.05059064233474976
0.05059065665261768
0.05059067458022634
0.05059069533911831
0.05059071876824058
0.0505907459306415
0.05059077738129464
0.05059081338349882
0.05059085416999436
0.05059090000806881
0.05059095121314425
0.05059100816732201
0.05059107132618036
0.05059114114277206
0.05059121769002782
0.05059129975213828
0.05059138459990532
0.05059147192143094
0.05059156524559186
0.05059166716084212
0.05059177835042865
0.05059189943550765
0.05059203125700599
0.05059217477179796
0.05059233101186512
0.05059250109234732
0.05059268622280944
0.05059288771501885
0.05059310699030179
0.0505933455877039
0.05059360517296592
0.05059388754833024
0.05059419466330196
0.05059452862638989
0.05059489171783001
0.05059528640354825
0.05059571534991752
0.05059618143745214
0.05059668777195716
0.05059723770057996
0.05059783485404097
0.05059848314348047
0.05059918623411877
0.05059994635986904
0.05060076874716756
0.05060168978468704
0.05060276456994566
0.05060402009401865
0.05060548051676371
0.05060718668063677
0.0506091479761251
0.0506113434570032
0.05061376382998419
0.05061641361570499
0.05061930416769367
0.05062244667792132
0.05062584528525346
0.05062949045619505
0.05063335320862836
0.05063737846933264
0.05064147030941056
0.05064546790912344
0.0506491717853502
0.05065249983980798
0.05065549604078604
0.05065822343362886
0.05066079844190298
0.0506634870907232
0.05066644153059956
0.05066935415830906
0.05067113781047145
0.05067320215112289
0.0506763918101799
0.05067967509685313
0.0506831268160104
0.05068680875001905
0.0506907526882372
0.05069494347766716
0.05069939171804771
0.05070410446926812
0.05070908480192174
0.05071433183006947
0.05071983476358664
0.05072558643522478
0.05073156893385104
0.05073775323236594
0.05074410929148457
0.05075060304102531
0.05075718272619212
0.05076379527487921
0.0507704027923705
0.0507769006452826
0.05078322742047935
0.050789230134242
0.05079460184644903
0.05080146909562473
0.050798888283577
0.05081984789504164
0.05078258211209499
0.05088104861869002
0.05058482908163015
0.04964622268173736
0.04964622736221665
0.04964623266322957
0.04964623794006642
0.04964624355702091
0.04964625006197575
0.04964625807874729
0.04964626827398434
0.04964628122707638
0.04964629680889871
0.04964631468055762
0.04964633525842426
0.04964635913128095
0.04964638665765756
0.04964641805470712
0.04964645351791346
0.04964649326087305
0.04964653753413728
0.04964658664406948
0.04964664095655338
0.04964670081682239
0.04964676618235505
0.04964683583005786
0.04964690746298213
0.04964698104989687
0.04964705959584632
0.04964714518362382
0.04964723834644535
0.04964733958016621
0.04964744956245674
0.04964756906520592
0.04964769892218229
0.04964784003649619
0.04964799339024177
0.04964816005157361
0.04964834118141415
0.04964853804095868
0.04964875199992039
0.04964898454551302
0.04964923729224332
0.04964951199248213
0.04964981054764468
0.04965013501992924
0.04965048764483049
0.04965087084477941
0.04965128724408158
0.04965173968519105
0.04965223124770087
0.04965276527906635
0.04965334545121815
0.04965397578762874
0.04965466026230195
0.04965540162250982
0.04965620343662805
0.04965709140571657
0.04965812429791577
0.04965935517099019
0.0496608258355965
0.0496625625095827
0.04966454935979381
0.04966676128615959
0.04966919037907026
0.04967184392599011
0.04967473659519581
0.04967788160551963
0.04968128081132507
0.04968491450645215
0.0496887327352138
0.04969264969048334
0.04969654294990836
0.04970026553305205
0.04970369500919837
0.04970680631698405
0.04970956080450734
0.04971199326936395
0.04971462095411648
0.04971769327911806
0.04972091291165116
0.04972349813170713
0.04972581273741442
0.0497284795097302
0.04973141692961176
0.04973459101179806
0.04973798696965279
0.04974163585133845
0.04974555227971264
0.04974973821410418
0.04975419993915201
0.04975894263757597
0.04976396266311393
0.04976925719754379
0.04977481320653386
0.04978060842261253
0.0497866121428366
0.04979278488010234
0.04979906222660776
0.04980535725865258
0.04981159513580216
0.04981763490672041
0.04982338924835419
0.04982872922909474
0.04983271560835887
0.04983950114398199
0.04983367836607581
0.04985648618477729
0.04980592435361651
0.04994567287187483
0.04952052079000439
0.04877923599652193
0.04877924056221607
0.04877924573291343
0.04877925087380448
0.04877925632038645
0.04877926256955283
0.04877927017793904
0.04877927971609656
0.04877929160629512
0.04877930550197671
0.04877932143135454
0.04877933995086279
0.04877936119728397
0.04877938546603241
0.04877941295807221
0.04877944382227603
0.04877947821202902
0.04877951631481637
0.048779558369963
0.04877960467027539
0.04877965548386429
0.04877971070753958
0.04877976915704434
0.04877982881510107
0.04877988980541477
0.04877995480225426
0.04878002556362475
0.04878010253067201
0.04878018612639613
0.04878027693421432
0.04878037562152234
0.04878048291326232
0.04878059959951763
0.04878072654493772
0.04878086469582114
0.04878101508709795
0.0487811788500103
0.04878135722043458
0.04878155154777962
0.04878176330441784
0.04878199409565124
0.04878224566988127
0.04878251992915925
0.04878281894001116
0.04878314494469894
0.04878350037294028
0.0487838878541797
0.04878431023036966
0.04878477056856498
0.04878527217367851
0.04878581861323913
0.04878641378151052
0.04878706193471529
0.04878776724093183
0.04878853243966671
0.04878936101292508
0.04879028023475816
0.04879135231081698
0.0487926455694009
0.04879422141892432
0.04879608893534873
0.04879820495343778
0.04880054381158112
0.04880310333761394
0.04880589544265423
0.04880893572946452
0.04881223233136232
0.04881577451522061
0.04881952370827661
0.04882340944845767
0.04882732773210471
0.04883113614393973
0.04883466572204069
0.04883779294106591
0.04884043278415573
0.04884273021502881
0.04884544265425286
0.04884858391652486
0.04885132613591243
0.04885405283282773
0.04885695643990167
0.04885987624085832
0.04886298142004708
0.04886630252479105
0.04886982310941979
0.04887355171458601
0.04887749246965177
0.04888164603230177
0.04888600998769169
0.04889057382424596
0.04889532626833179
0.04890024591868671
0.04890530410215524
0.04891046080500015
0.04891566520545162
0.04892085447517305
0.04892594225036666
0.04893084041015285
0.0489353851790448
0.04893944561966126
0.0489430561403785
0.04894432152873917
0.0489497917624058
0.04893873011689249
0.04896344546850998
0.04888968767020235
0.04908162284169761
0.04851771367010752
0.04798807316351186
0.04798807744017844
0.04798808228307731
0.04798808709362302
0.04798809217635829
0.04798809798847763
0.04798810506312218
0.04798811397102007
0.04798812516036649
0.04798813841937684
0.04798815372491953
0.04798817133723025
0.04798819133092291
0.04798821407219778
0.04798823976238577
0.04798826851410591
0.04798830043773807
0.04798833567354232
0.0479883744056737
0.04798841686177704
0.04798846323538479
0.04798851335651343
0.0479885660695264
0.0479886196569481
0.04798867437766494
0.04798873255373853
0.04798879565791196
0.04798886404581707
0.04798893806208569
0.04798901818622758
0.0479891049662234
0.0479891989963219
0.04798930092371544
0.04798941145667939
0.04798953137079866
0.04798966151524054
0.04798980281976244
0.04798995630241531
0.04799012307789153
0.0479903043665019
0.04799050150371623
0.04799071595018223
0.04799094930223823
0.04799120330300474
0.04799147985409389
0.04799178102793234
0.04799210908077965
0.04799246646666762
0.04799285585253397
0.0479932801344035
0.04799374245316218
0.04799424621046018
0.04799479510681742
0.04799539325142424
0.04799604519831227
0.04799675500686344
0.04799752395058387
0.04799835655504271
0.04799930592804801
0.04800046697328812
0.04800192136617611
0.04800368073555721
0.04800569385844689
0.04800792652094777
0.04801037074265593
0.04801303624585224
0.04801593995748564
0.04801909418869613
0.04802249421892398
0.0480261076989431
0.04802986860948082
0.04803367607576532
0.04803739276540165
0.04804084321714877
0.0480438419435367
0.04804633128561209
0.04804875691958586
0.04805175096531378
0.04805445125546665
0.04805629640350882
0.04805841860199835
0.04806117076439187
0.04806405578109454
0.04806710322165798
0.04807033928757586
0.04807376453958061
0.04807736987644008
0.04808114840850702
0.04808508952915667
0.0480891737576682
0.04809337826067438
0.04809766793463301
0.04810199947759213
0.04810631491016897
0.04811054082108929
0.04811458291189074
0.04811831147349303
0.04812159949652717
0.04812423774461327
0.04812596296010263
0.04812711254838006
0.04812452655209937
0.0481271801166453
0.04810859557506909
0.0481363061375626
0.04802837323297383
0.0482720735925158
0.0475677093521401
0.04725887169839627
0.04725887597929772
0.04725888082682363
0.04725888563823771
0.04725889070501869
0.04725889645196254
0.04725890334739252
0.04725891185506741
0.04725892230885832
0.04725893453148888
0.04725894865707592
0.04725896483948426
0.04725898298057533
0.04725900347350191
0.04725902653238159
0.04725905225862918
0.04725908074738368
0.04725911212493146
0.04725914656159287
0.04725918427158053
0.04725922544021123
0.04725926990626855
0.0472593165469863
0.04725936365110332
0.04725941145767582
0.04725946220453935
0.04725951724411626
0.04725957687694658
0.04725964139765369
0.04725971122729253
0.04725978684932915
0.04725986878897094
0.04725995761967098
0.0472600539708542
0.0472601585338259
0.04726027206774121
0.04726039540627353
0.04726052946493696
0.0472606752490062
0.04726083386200868
0.0472610065147279
0.04726119453462179
0.04726139937562115
0.04726162262833174
0.04726186603067242
0.04726213147902256
0.04726242104001958
0.04726273696309919
0.04726308169376649
0.04726345788757474
0.04726386842470678
0.04726431642413226
0.04726480525548017
0.04726533855675875
0.04726592029933848
0.04726655489387423
0.04726724682384272
0.04726799878460065
0.04726881202984712
0.04726971005491016
0.04727077700887956
0.04727213049818593
0.04727381062340216
0.04727576772025895
0.04727795199836649
0.04728034468289687
0.04728295147615737
0.04728578999163382
0.04728887594053559
0.04729220871642151
0.04729575869485577
0.0472994592024949
0.04730320322421577
0.04730683656896267
0.04731014494153385
0.047312880952519
0.04731510031482679
0.04731777632013807
0.04732072340374515
0.04732295918176137
0.04732535693292477
0.04732780542710986
0.04733027631242195
0.04733291155160503
0.04733570610693796
0.0473386551469364
0.04734175488008228
0.04734499637621824
0.0473483639393787
0.04735183212177086
0.0473553696031581
0.0473589299503149
0.04736245578009843
0.04736587045358349
0.04736907626528905
0.04737195674442362
0.04737435157815893
0.04737608857719027
0.04737692016285605
0.04737635544442875
0.04737513968854802
0.04736860333378108
0.0473688450439996
0.04734097787213711
0.04737467621284775
0.04722752189204908
0.0475228333920242
0.04661649320842971
0.04657576485813023
0.04657576918068487
0.04657577407525371
0.04657577892923854
0.0465757840208961
0.04657578974022032
0.04657579648973326
0.04657580463968787
0.0465758144459519
0.04657582580867707
0.0465758389975518
0.04657585400462679
0.04657587056162708
0.04657588910667648
0.04657590986258563
0.04657593290655045
0.04657595830372197
0.04657598615038259
0.04657601658475955
0.04657604978480494
0.04657608589106558
0.04657612468246256
0.04657616499130637
0.04657620524249451
0.04657624585155175
0.04657628889025043
0.04657633546442862
0.04657638580367793
0.04657644015254901
0.04657649886729476
0.04657656235838882
0.04657663107447048
0.04657670550907281
0.04657678620802694
0.04657687377541635
0.04657696887979123
0.04657707226118079
0.04657718473886191
0.04657730721984301
0.04657744070806344
0.04657758631428462
0.04657774526661534
0.04657791892162808
0.04657810877608231
0.04657831647936962
0.04657854384691756
0.04657879287477917
0.04657906575546758
0.04657936489489357
0.04657969293014537
0.04658005274784121
0.04658044750273674
0.04658088063535111
0.04658135588528525
0.04658187730123716
0.04658244928448141
0.04658307673326637
0.04658376498756817
0.04658451809807989
0.04658533595209008
0.04658622884693007
0.04658728547201507
0.04658865140337828
0.0465903745514364
0.04659239457405393
0.0465946498078824
0.04659711533904667
0.04659979547126195
0.04660270943027209
0.04660587575960375
0.04660929545191349
0.04661293612147706
0.04661672182525259
0.04662053247352431
0.04662420700690106
0.04662752952797897
0.04663023427966671
0.0466326428634898
0.04663566157924793
0.04663825042385332
0.04664052636209242
0.04664315027349727
0.04664591340596098
0.04664883549688251
0.04665189083235687
0.04665505795827547
0.04665832584130557
0.04666167575406932
0.04666508238720039
0.04666851143921504
0.04667192191999042
0.0466752570557873
0.04667844859940021
0.0466814077124164
0.04668402098723147
0.04668615034565261
0.0466876052782647
0.0466881791481228
0.04668764640219562
0.04668524842276881
0.04668234586739949
0.04667256707054981
0.04667168745328015
0.04663380713989401
0.046677809392877
0.04649091291509149
0.0468522869464009
0.04560643380165445
0.04595642428652012
0.04595642839042524
0.0459564330372236
0.04595643764266184
0.04595644246301169
0.0459564478548631
0.04595645418432716
0.04595646179080891
0.04595647093221499
0.04595648162774753
0.04595649416217135
0.04595650833935833
0.04595652383288897
0.04595654112586299
0.04595656044254497
0.04595658184000584
0.0459566053614693
0.04595663108059575
0.04595665910924861
0.04595668959473575
0.04595672265121193
0.04595675807432741
0.04595679484203036
0.04595683164477066
0.04595686885674914
0.04595690825381501
0.04595695084019395
0.04595699683030604
0.04595704644517591
0.04595710000485997
0.04595715787826436
0.04595722046829089
0.04595728821750563
0.04595736161457352
0.04595744119937403
0.04595752756827579
0.04595762138004107
0.04595772336232248
0.04595783431870866
0.04595795513631223
0.0459580867938714
0.04595823037030698
0.04595838705372123
0.04595855815098369
0.04595874509820504
0.04595894947247001
0.04595917300507675
0.04595941759631761
0.04595968533147199
0.04595997849778968
0.0459602996021425
0.04596065138914054
0.04596103685949101
0.04596145928772613
0.04596192223545839
0.0459624295579444
0.04596298543930195
0.04596359455356903
0.04596426212446689
0.04596499219682197