/*--------------------------------*- C++ -*----------------------------------*\
| =========                 |                                                 |
| \\      /  F ield         | OpenFOAM: The Open Source CFD Toolbox           |
|  \\    /   O peration     | Version:  v1812                                 |
|   \\  /    A nd           | Web:      www.OpenFOAM.com                      |
|    \\/     M anipulation  |                                                 |
\*---------------------------------------------------------------------------*/
FoamFile
{
    version     2.0;
    format      ascii;
    class       volScalarField;
    location    "0.00000125";
    object      p;
}
// * * * * * * * * * * * * * * * * * * * * * * * * * * * * * * * * * * * * * //

dimensions      [0 2 -2 0 0 0 0];


internalField   nonuniform List<scalar> 
44064
(
0.06685063559493348
0.06685033140803122
0.06685002392359546
0.06684977722002546
0.06684968017190657
0.06684986840384846
0.06685043979165875
0.06685133052852722
0.0668523624021644
0.06685347323295297
0.06685470281155692
0.06685605639000498
0.06685751571017151
0.06685906312148397
0.06686068609887259
0.06686237512745599
0.06686412206747352
0.06686591950068567
0.06686776051525864
0.06686963862374276
0.06687154767384094
0.06687348168941845
0.06687543469394218
0.06687740049377824
0.06687937244928065
0.06688134327085901
0.06688330480775825
0.06688524783683236
0.06688716185524035
0.06688903487720421
0.06689085323463277
0.06689260138193687
0.06689426170682398
0.0668958143523438
0.06689723706078431
0.06689850505693978
0.0668995910064101
0.066900465130665
0.06690109552609654
0.06690144806992401
0.06690148380444225
0.06690115748878009
0.06690041984334986
0.06689921764834128
0.06689749052306228
0.06689516705039381
0.06689216260952842
0.06688838346861527
0.06688374423738999
0.06687820504738111
0.0668718256738581
0.06686480646369544
0.06685741995894645
0.06684964547918572
0.06684051155722531
0.06682845693479217
0.0668132071753454
0.06679579928064472
0.06677676624713552
0.06675598194540937
0.06673326497559841
0.06670853998737043
0.0666817572389779
0.06665256366242699
0.06662092658117191
0.06659031447606867
0.06656219444034552
0.06653350255433935
0.06650234076973825
0.06646684895430938
0.06642525381443175
0.0663786119568716
0.06632974513723344
0.06627847078897084
0.06622223288034061
0.06616119738256031
0.06609602657774646
0.06602631077819675
0.06595174803517181
0.06587219109201553
0.06578745613491147
0.06569737021957928
0.06560179691355336
0.06550061920059874
0.06539382073709116
0.06528151264580657
0.06516380923616456
0.06504086139465451
0.06491291117341259
0.06478030708575812
0.06464351542376126
0.06450312610852547
0.06435988757700825
0.064214770997519
0.06406848698634497
0.06392196596639617
0.06377695410992591
0.06363575531273043
0.0635037733235447
0.06338766454800011
0.06329225166005344
0.0632236008461016
0.06318942668941489
0.06319963263138759
0.06326723545087133
0.06341078936519148
0.0636558760229463
0.06392559909385406
0.05927409244027117
0.05927411596750693
0.05927414233366446
0.05927416763474989
0.05927419094146783
0.05927420887814599
0.05927421785896481
0.05927421922740056
0.05927422134448454
0.0592742321476703
0.0592742534310876
0.05927428605164591
0.05927433316594639
0.05927439847513825
0.05927448541607562
0.05927459751666392
0.05927473818261468
0.0592749102900686
0.0592751168944444
0.05927536147008224
0.05927564788648637
0.0592759803304814
0.05927636297731756
0.0592767999631416
0.0592772961351014
0.05927785725512612
0.05927848971657659
0.05927920057676102
0.0592799976569845
0.05928088962433047
0.05928188606298412
0.05928299754651184
0.0592842357136423
0.05928561334101708
0.05928714439057357
0.05928884405285171
0.05929072908189478
0.05929281877107989
0.05929513357665619
0.05929767908011355
0.05930043849266182
0.05930340691237008
0.05930661303263524
0.05931009777462783
0.0593138981685083
0.0593180481136348
0.05932258146315003
0.05932753498623558
0.05933295182108899
0.0593388846531903
0.05934539564456298
0.05935254848168763
0.05936039069477231
0.05936893811730266
0.05937819482577827
0.05938823205578207
0.05939922157554146
0.05941137623816618
0.0594249447305428
0.0594402268853409
0.05945739675160054
0.05947612813329251
0.0594960453118409
0.0595177523961429
0.0595415681922459
0.05956381902170708
0.05958273325735848
0.0596012028457628
0.05962132598945363
0.05964519107809217
0.05967161378355765
0.05969991520209775
0.05973054212668828
0.05976289692269672
0.05979723837983367
0.05983400089037343
0.05987311618551007
0.05991434911180136
0.05995773807559705
0.06000327953252943
0.06005088248719063
0.06010043093685793
0.06015177666096012
0.06020471120096332
0.0602589463820399
0.06031412035533556
0.06036981426427872
0.060425585777372
0.06048095786212073
0.06053541451437305
0.06058842273459802
0.06063945599730719
0.06068800079409969
0.06073373946384872
0.06077666572187532
0.06081704469509995
0.06085516311094812
0.06089051048203808
0.06092136254975634
0.06094532953095626
0.06096116373314388
0.06096855124093065
0.06096657295856986
0.06095332263864206
0.06092462155892719
0.06087058124489973
0.06079077307663602
0.06060398098187866
0.0586642257121483
0.05866421454877199
0.05866420190213078
0.05866418927734791
0.05866417576233467
0.05866416031975783
0.05866414318489602
0.05866412794343581
0.05866412303338376
0.05866414067904382
0.05866419040094527
0.05866427591510849
0.05866440008415259
0.05866456617189764
0.05866477594352579
0.05866502902731258
0.05866532424272085
0.05866566090010249
0.0586660384348108
0.05866645632212687
0.05866691411812639
0.05866741159089284
0.05866794921189263
0.05866852797168941
0.05866914794825316
0.05866980840506691
0.05867050953501193
0.05867125249704785
0.05867203848106056
0.05867286856437857
0.05867374371123625
0.05867466473030593
0.0586756322084105
0.05867664643907786
0.05867770734319865
0.05867881437310318
0.05867996638505791
0.05868116145147998
0.05868239662570568
0.05868366797586957
0.05868497154743037
0.05868630255057516
0.05868765385393458
0.05868901637061177
0.05869037911691766
0.05869172902274
0.05869305060875963
0.05869432554664039
0.05869553205720685
0.05869664414214158
0.05869763092983476
0.05869845691926324
0.05869908421335888
0.05869947720283089
0.05869960752523651
0.05869945234927879
0.05869897930461575
0.058698129016118
0.05869681924319192
0.05869494622018533
0.05869237971840685
0.05868902045687456
0.05868494589470406
0.05868040186880664
0.05867554903564685
0.0586699700839363
0.05866292168247369
0.05865449702763767
0.05864525890811886
0.05863603185314371
0.05862853631882295
0.05862143457589093
0.05861292297129968
0.05860314799827999
0.05859284567720174
0.05858242028771023
0.05857154535717759
0.05856024159416814
0.05854870392320426
0.0585370257960835
0.05852531215353341
0.05851372039732712
0.05850243760022819
0.05849167684442203
0.05848166302366883
0.05847262918323993
0.05846483505614616
0.05845858370176638
0.05845418793581925
0.05845195326039697
0.0584521739349991
0.05845512859920692
0.05846100184726504
0.05846989361776679
0.05848195214408262
0.05849701362768908
0.05851467918195165
0.05853426510195563
0.05855414885045751
0.05857244921293542
0.05858815908668003
0.05860011282008962
0.05860660300713298
0.05860611957233643
0.05859868396879576
0.05858658772031122
0.05857804815602254
0.05794100355243637
0.05709484434316804
0.05709485035919575
0.05709485716560109
0.05709486395660513
0.05709487138373483
0.05709488078453171
0.05709489433873332
0.05709491479930387
0.05709494424708558
0.05709498245416302
0.05709502821207373
0.05709508263765684
0.05709514805353637
0.05709522577704253
0.05709531671933895
0.05709542182823317
0.05709554202400909
0.05709567830991146
0.05709583189991028
0.05709600427482428
0.05709619713539709
0.05709641211636365
0.05709664959943247
0.05709690672588803
0.05709717951313798
0.05709746953609882
0.05709778333961568
0.05709812584596993
0.05709849979454282
0.05709890810606108
0.05709935422252189
0.05709984199736812
0.05710037568177188
0.0571009599743799
0.05710160006889117
0.05710230169728102
0.05710307128747924
0.05710391643796354
0.05710484574966643
0.0571058630230468
0.05710696079842099
0.05710813196399923
0.0571093853057766
0.05711073911679213
0.05711221092065451
0.0571138172721154
0.05711557557037076
0.05711750334948117
0.05711960638840304
0.05712187706882024
0.05712430715095732
0.05712688971018055
0.05712961629573661
0.05713247345086243
0.05713543918951105
0.05713848257966534
0.05714157278557679
0.05714469420010523
0.05714784215897158
0.05715100557538289
0.05715417076401998
0.05715733145933247
0.05716047148528908
0.05716351832992674
0.05716636981363137
0.05716899825111813
0.05717156856259654
0.05717432554928913
0.05717703510210861
0.05717930763666291
0.05718185852264082
0.05718479127671663
0.05718677485418244
0.05718815743803806
0.05719024315495368
0.05719287017307032
0.0571953904083978
0.05719774200593167
0.05720000423175689
0.05720208908908925
0.05720392546183841
0.05720546503450235
0.05720664436969984
0.05720740354700034
0.05720767296746679
0.05720736087465889
0.05720639618418653
0.057204737532795
0.05720234598319172
0.05719919154336759
0.05719526212475009
0.05719057802740774
0.05718515241686707
0.05717896048505978
0.05717210274766309
0.05716467713156796
0.05715682036591917
0.05714889087931516
0.05714091044775785
0.05713293818127792
0.05712554853118205
0.05711892175100857
0.05711297128380723
0.05710704262642267
0.05709807942646714
0.0570932725522623
0.05726439036545909
0.05579262009044437
0.0556573164120929
0.05565732289482102
0.05565733023546003
0.05565733754357
0.05565734535896745
0.0556573545975228
0.05565736653313892
0.05565738276298564
0.05565740479949507
0.0556574328695137
0.05565746599048441
0.05565750447507285
0.05565754980903846
0.05565760291799364
0.05565766435751578
0.05565773464343336
0.05565781435536284
0.0556579041748704
0.05565800491883959
0.05565811753581058
0.05565824293781963
0.0556583812305388
0.05565853020910066
0.05565868619328433
0.05565884948949441
0.05565902533704502
0.05565921763207894
0.05565942754880412
0.05565965618130799
0.0556599049207586
0.05566017529901299
0.05566046892607837
0.05566078749693559
0.05566113280310728
0.055661506741241
0.05566191132720617
0.05566234871767375
0.05566282120004042
0.05566333107641531
0.05566388078605929
0.0556644751405475
0.0556651240380205
0.05566584050869082
0.05566663790306207
0.05566753066583094
0.05566853625138412
0.05566967304074127
0.05567093836163914
0.05567230780703778
0.0556737831602564
0.05567540294183279
0.05567721121332642
0.05567922866065911
0.05568145213118664
0.05568387925799659
0.05568651381369878
0.0556893619849691
0.05569242447727986
0.05569568461918831
0.05569910204474164
0.05570260943830172
0.05570611807725659
0.05570955021092595
0.05571289402472036
0.05571618380408838
0.05571943260998465
0.05572260335683238
0.0557256198653726
0.05572851371021492
0.05573152578681714
0.05573461217515917
0.05573761597463028
0.05574079961843662
0.05574497485175394
0.05574954600420504
0.05575345472374806
0.05575740169137764
0.0557621009826889
0.05576718728462449
0.05577261302746424
0.05577843319698394
0.0557846772934167
0.05579134123749586
0.05579841739977997
0.05580588452418395
0.05581370414569811
0.05582183995122889
0.05583024720210211
0.05583885720256916
0.05584757909772042
0.05585629637414318
0.05586489926708602
0.0558732698958016
0.05588123466252249
0.0558886872095626
0.05589547398640463
0.05590140531195967
0.05590650719171417
0.0559106198674215
0.05591357805116997
0.05591533383155347
0.0559154480656342
0.05591367555465339
0.05591073536428907
0.05589811540437244
0.05583578489590475
0.05629851377616112
0.05356905656653915
0.05453023422064489
0.0545302392972283
0.05453024504474351
0.05453025075945626
0.05453025684924551
0.05453026401626212
0.05453027326140985
0.05453028584944591
0.05453030292418862
0.05453032442421071
0.05453034995129632
0.05453038004040196
0.05453041551965653
0.05453045715973721
0.05453050548190323
0.05453056093219442
0.0545306239725178
0.05453069511540298
0.05453077495105502
0.05453086415313911
0.05453096334457486
0.0545310725241763
0.05453119007903941
0.05453131389678867
0.05453144504471768
0.05453158721682689
0.05453174279637603
0.05453191273936409
0.05453209802090841
0.05453229980421447
0.05453251934443408
0.05453275795372509
0.05453301700219478
0.05453329791882567
0.05453360218835272
0.05453393134669104
0.05453428697578822
0.05453467069779461
0.05453508416819737
0.05453552906817118
0.05453600709872267
0.05453651998002114
0.05453706946288289
0.05453765737229103
0.05453828566159132
0.05453895622411966
0.05453967021589365
0.05454042955211703
0.05454125080456848
0.05454216892754143
0.05454321978671224
0.05454440998981826
0.05454571941218253
0.05454715986504456
0.05454876791688544
0.05455055616830531
0.05455252290323728
0.05455467031085443
0.05455700317972934
0.05455952454800007
0.05456223278923808
0.05456511906092093
0.05456816003340825
0.05457129727450515
0.05457441328200721
0.05457736304609986
0.0545800559323829
0.05458250588301661
0.05458474156533304
0.05458672860180201
0.05458848254407783
0.05459020329181413
0.05459196144102094
0.05459390582754266
0.05459594308741608
0.05459800720903924
0.05459996548611682
0.05460188531686989
0.05460401612105662
0.05460647243276418
0.05460921812088545
0.05461225806745258
0.05461561134651876
0.05461931494101833
0.05462340764054445
0.05462792582935971
0.05463291768812774
0.05463843229063601
0.05464451609664689
0.05465122992453622
0.05465861533109883
0.05466670322153501
0.0546755215655552
0.05468503784600837
0.054695249025994
0.05470608564511783
0.05471737004766325
0.05472902343743472
0.05474075855974526
0.05475224793837104
0.05476329408526617
0.05477328072934801
0.05478124026455665
0.05479076799545765
0.05480632473191488
0.05465067326351895
0.05556860985679468
0.05101154771284556
0.05349429919919593
0.0534943038280738
0.05349430906904564
0.05349431427388052
0.05349431978211761
0.05349432613947066
0.05349433405883772
0.05349434438622862
0.05349435787112335
0.05349437448848243
0.0534943942255659
0.05349441741658845
0.05349444440683054
0.05349447585359127
0.05349451220083224
0.05349455379276694
0.05349460098192325
0.05349465416971663
0.05349471382885389
0.0534947805073147
0.05349485471303372
0.05349493641977927
0.05349502422630506
0.05349511637799729
0.05349521395021629
0.05349532010773374
0.05349543678421276
0.05349556483809721
0.05349570519358167
0.05349585896110208
0.053496027362987
0.05349621171215786
0.0534964134188403
0.0534966339969326
0.05349687506719086
0.05349713835919889
0.05349742571257443
0.0534977390772089
0.05349808051244628
0.05349845218517654
0.05349885636606112
0.0534992954222441
0.05349977180526855
0.05350028803374413
0.05350084667047852
0.05350145029260064
0.05350210145785839
0.05350280269102459
0.05350355646133954
0.05350436477347386
0.05350522836007524
0.0535061503299886
0.05350715729158712
0.05350828501652091
0.05350954417240694
0.05351094965275147
0.05351252346667914
0.05351427049602218
0.05351619267345482
0.05351829727296124
0.0535205944380423
0.05352309292354368
0.05352579564202176
0.0535286948409453
0.05353176699633377
0.05353496559824741
0.05353820662884098
0.05354135832157805
0.05354429277150109
0.05354697981124048
0.05354944547537308
0.05355174071906241
0.05355403889347907
0.05355646280606063
0.05355904011790449
0.05356173945861665
0.05356361494285028
0.05356573920842102
0.05356884659005959
0.05357198544883467
0.05357531884773992
0.05357890172118543
0.05358274958948438
0.05358688642013859
0.05359133296397275
0.05359610852601648
0.05360123999950843
0.05360675344339435
0.05361267223373743
0.0536190347007411
0.05362588183122185
0.05363326112602629
0.05364124496621985
0.05364987686066901
0.05365925073178719
0.05366945432275396
0.05368051995627621
0.05369260512392407
0.05370575177750532
0.05372000854037692
0.05373564965478819
0.05375287098121843
0.05376990249079537
0.05378929300361279
0.05386188684276946
0.05356761714179194
0.05509587957542852
0.04838754956816446
0.05255272158011209
0.05255272575461278
0.05255273048116755
0.05255273517052096
0.05255274010969386
0.0525527457436005
0.05255275263122601
0.05255276142655641
0.05255277273133134
0.05255278663029854
0.0525528032189314
0.05255282255279329
0.05255284473892535
0.05255287040190328
0.05255289992371737
0.05255293355646611
0.05255297155276874
0.05255301420880767
0.05255306188202412
0.05255311499329195
0.05255317392418386
0.05255323858367613
0.05255330770342533
0.05255337986026287
0.05255345610712802
0.05255353905908594
0.0525536302243534
0.05255373029746716
0.05255384005099645
0.05255396041958112
0.05255409244251401
0.05255423725156905
0.05255439608085435
0.05255457027660242
0.05255476130502505
0.05255497075984578
0.05255520036981307
0.05255545200598719
0.052555727688591
0.05255602959322272
0.05255636005579969
0.05255672157517562
0.05255711681252015
0.05255754858717124
0.05255801986884453
0.05255853376600238
0.05255909351034853
0.0525597024383836
0.05256036397275581
0.052561081610394
0.05256185884958062
0.05256269874748956
0.0525636031352133
0.05256457527731291
0.05256563686834753
0.0525668197681847
0.05256814230795515
0.05256961103585456
0.05257122891607827
0.05257300387384477
0.05257494812266983
0.05257707603197166
0.05257940145984516
0.05258193406603209
0.05258467463005848
0.0525876098995063
0.05259070707652208
0.05259390587540012
0.05259710594271585
0.05260016545064621
0.05260296418675277
0.05260549907968728
0.05260781596661759
0.05261001009172387
0.05261238282700902
0.0526151623522705
0.05261839479180622
0.05262067804785934
0.05262268469538916
0.05262552028900042
0.05262864770779248
0.0526320552917346
0.05263577171085298
0.05263982999387452
0.05264425862910718
0.05264908783044469
0.052654355115711
0.05266009913146177
0.05266635804197289
0.05267318134698267
0.05268061941240592
0.05268872512308852
0.05269757869209511
0.05270723992460834
0.05271781654777861
0.05272943654617755
0.05274220185353205
0.05275635322979375
0.05277209518380714
0.0527896677696644
0.05280951495840328
0.05283289546375113
0.05285797114855739
0.05287363578920842
0.05303194311668779
0.05252921343652402
0.0545847999060571
0.04629627098769633
0.0516685488674611
0.05166855276500638
0.05166855717784476
0.05166856155263663
0.05166856614562255
0.05166857134411181
0.05166857761383586
0.05166858546812982
0.05166859535483127
0.05166860735593719
0.05166862163733311
0.05166863810529475
0.05166865669302084
0.05166867798084901
0.05166870229680614
0.05166872982394249
0.05166876074180772
0.05166879527016146
0.05166883368323374
0.05166887631117184
0.05166892345077179
0.05166897498528231
0.05166902976031187
0.05166908647548502
0.05166914605846173
0.05166921079764603
0.05166928194655934
0.05166936007338546
0.05166944582791676
0.05166954000913471
0.05166964351660886
0.05166975734311389
0.05166988258633801
0.05167002046057136
0.05167017230736981
0.05167033960624699
0.05167052398582148
0.05167072723513894
0.05167095131492873
0.05167119836849622
0.05167147073156848
0.05167177093998886
0.05167210173421394
0.0516724660599428
0.05167286706426016
0.05167330808647463
0.05167379264272404
0.05167432440304748
0.05167490715953063
0.05167554478513955
0.05167624118997828
0.05167700028525953
0.05167782589907249
0.05167872141255023
0.05167968906901716
0.05168073148195884
0.05168186350167242
0.05168311417473084
0.05168450001368973
0.05168602304565344
0.05168769047141449
0.05168951505845296
0.05169151270146586
0.05169370002615294
0.05169609117874077
0.05169869318291891
0.05170149988886668
0.05170448523966165
0.05170759699148429
0.05171075161395505
0.05171383458891456
0.05171672581611476
0.05171936666001129
0.05172174102827413
0.05172394978186746
0.05172646245323154
0.05172953559887609
0.05173262476265825
0.05173565104554277
0.05173868035224275
0.0517416863836757
0.05174498338187442
0.05174860109785549
0.05175255337122975
0.05175687276005909
0.05176159709624276
0.0517667690027364
0.05177243481675416
0.05177864397465158
0.0517854576105681
0.0517929416587683
0.0518011653789932
0.05181022748963548
0.05182021307452976
0.05183124850849173
0.05184348924315134
0.05185707333643378
0.05187226429469684
0.05188933174981839
0.05190860364167094
0.051930303853986
0.05195655743217151
0.05198951823085798
0.0519788471314792
0.0522408000284827
0.05161732104285273
0.05384897195581535
0.0449805519906324
0.05083285820941652
0.05083286193570407
0.0508328661546365
0.05083287033382219
0.0508328747034912
0.05083287959402963
0.05083288536854283
0.05083289238701168
0.05083290094695631
0.05083291115384743
0.05083292330057886
0.05083293716927031
0.05083295250951875
0.05083296987755547
0.050832989568788
0.05083301171635612
0.05083303644552678
0.05083306391913939
0.05083309434874452
0.05083312799454941
0.05083316508309119
0.05083320546176665
0.05083324805323283
0.05083329175259101
0.05083333750492688
0.05083338728070046
0.05083344204756004
0.05083350226317539
0.05083356847596918
0.05083364136449214
0.05083372169891302
0.05083381033904651
0.050833908247318
0.05083401650187476
0.0508341363092037
0.05083426901747429
0.05083441613079306
0.05083457932418765
0.0508347604590997
0.05083496159906582
0.05083518502506321
0.05083543324949058
0.0508357090282139
0.05083601536993121
0.05083635554230632
0.05083673307394863
0.05083715175101788
0.05083761560711775
0.0508381289049905
0.05083869610815044
0.05083932184121828
0.05084001084443455
0.05084076793519461
0.05084159792650531
0.05084250523106327
0.05084349320466554
0.05084456650065259
0.05084574363907171
0.05084704553419467
0.05084847531634003
0.05085003323281576
0.05085172754267191
0.05085357208417958
0.05085558409834585
0.05085778210281346
0.05086018266614476
0.05086279567869071
0.05086561824982572
0.05086862819586043
0.05087177900637788
0.05087499698426264
0.05087817828156813
0.05088119167197065
0.05088391804039143
0.05088632414408825
0.05088870054038434
0.05089168503841324
0.05089482018807777
0.05089661519995767
0.05089855554756977
0.05090155297913861
0.05090488462488835
0.05090843970278183
0.05091229222465656
0.05091648474711564
0.05092103817446262
0.05092598525145516
0.05093136366901829
0.0509372131047057
0.05094358249017825
0.05095052670169006
0.05095810236246255
0.05096639383587677
0.05097547561541533
0.05098545589984896
0.05099647406231865
0.05100865441671641
0.05102222320561725
0.05103743517690941
0.05105471224457667
0.05107378572003297
0.05109610148600047
0.05113821991472886
0.05107975739539487
0.05140441048465181
0.05080546907251619
0.05298238524645977
0.04441716901810415
0.05004872061001979
0.05004872408912552
0.05004872802804484
0.05004873192748711
0.05004873599449907
0.05004874051951102
0.05004874580775456
0.05004875213878032
0.05004875972891016
0.05004876870471972
0.05004877937743436
0.05004879140781655
0.05004880445601372
0.05004881905596199
0.05004883546716333
0.05004885377896126
0.05004887407219636
0.05004889646329237
0.05004892111186676
0.05004894821963216
0.05004897796000937
0.05004901018571505
0.05004904397930902
0.05004907846013688
0.050049114466832
0.05004915363455338
0.05004919676429431
0.05004924424115145
0.05004929653044311
0.05004935420978969
0.05004941793814564
0.05004948845550204
0.0500495665951174
0.05004965329610367
0.05004974961590811
0.05004985674373506
0.05004997601493284
0.0500501089258014
0.05005025715007551
0.05005042255563786
0.05005060722109052
0.05005081345172074
0.05005104379435162
0.05005130105059378
0.05005158828782977
0.05005190884699971
0.05005226634601159
0.05005266467735914
0.05005310799725014
0.05005360070180498
0.05005414739694031
0.05005475284978836
0.0500554219247505
0.05005615954208009
0.05005697069661016
0.05005786012744871
0.05005883027447809
0.05005987892851035
0.05006102531331261
0.05006229695367094
0.05006369527012639
0.05006521786657744
0.05006686989545998
0.05006866301523764
0.05007061310685188
0.05007273801968028
0.05007505443174846
0.0500775733113689
0.05008029387489711
0.05008319639442151
0.05008623467943404
0.05008932844636088
0.05009235693583004
0.05009516784380929
0.05009763564039337
0.05009984192043673
0.05010234113118942
0.05010526807699699
0.05010796138683651
0.05011077641015833
0.05011362895839837
0.05011630506213082
0.05011924456796205
0.05012244802947834
0.05012590672180593
0.05012964592348669
0.05013369054459423
0.05013806245001132
0.05014278330581962
0.05014787917334414
0.05015337891219696
0.05015930707990724
0.05016570810703488
0.05017261341608555
0.05018007503502689
0.05018816958685454
0.05019695831647831
0.05020657077841974
0.0502171209992861
0.05022916406177615
0.05024218916498399
0.0502527791248898
0.05030612904562656
0.05019888269480662
0.0505255106384694
0.05000530969934731
0.05182474338988279
0.04448870199241301
0.0493137214149022
0.04931372457711032
0.04931372815713059
0.04931373169931109
0.04931373538490473
0.04931373946182244
0.04931374418071156
0.04931374976335414
0.04931375639059425
0.04931376424057898
0.04931377362846538
0.04931378412433545
0.0493137953542525
0.04931380784071467
0.04931382182452126
0.0493138373745856
0.04931385455084773
0.04931387344564592
0.04931389418837873
0.04931391694340486
0.04931394184823699
0.04931396876273633
0.04931399690550851
0.04931402562314822
0.04931405569117812
0.04931408843789621
0.04931412451640449
0.04931416426031308
0.04931420807400082
0.04931425645620557
0.04931430997635147
0.04931436927578446
0.04931443507900288
0.0493145082053599
0.04931458958096388
0.04931468025146625
0.04931478139560163
0.04931489434178432
0.04931502058505616
0.0493151618035622
0.04931531987590761
0.04931549689871641
0.04931569520397205
0.04931591737594695
0.04931616626729406
0.04931644501360741
0.04931675704529843
0.04931710609420677
0.04931749619179554
0.04931793167308399
0.0493184171672675
0.04931895756936697
0.04931955800325648
0.04932022378147238
0.04932096035469351
0.04932177311146559
0.04932266678308654
0.04932364567580795
0.04932472067159325
0.04932591851087878
0.04932724595280644
0.04932868759985554
0.04933024400145666
0.04933192358400076
0.04933373884767064
0.04933570541833196
0.04933784057908636
0.04934016027107765
0.0493426741610605
0.0493453784587027
0.04934824722819323
0.04935122543282157
0.0493542283930209
0.04935714884210001
0.04935985299367461
0.04936214731039512
0.04936409161187534
0.04936668001706581
0.04936946093125075
0.04937091743052301
0.04937252902223224
0.04937488979873503
0.04937737624911398
0.04938000623379529
0.04938280140465008
0.04938576252534015
0.04938888875248669
0.04939217820916705
0.04939562579252663
0.04939922410793839
0.0494029628831207
0.04940681885356519
0.04941077618202371
0.04941479584222764
0.04941883807707138
0.04942286438754213
0.04942680282976036
0.04943062327286543
0.04943411262798605
0.04943771502568867
0.04944194882550611
0.04943172296110316
0.04949054387198806
0.04934193521819799
0.04960239429382603
0.04919549011581557
0.05052417357295649
0.04500836484282426
0.04862929160362379
0.04862929466014582
0.04862929812037943
0.04862930154248866
0.04862930509695935
0.04862930901331267
0.04862931351678701
0.0486293187947574
0.04862932497890463
0.04862933215285926
0.04862934026599458
0.04862934914057102
0.04862935885279202
0.04862936965449384
0.04862938164853576
0.04862939487727576
0.04862940939148842
0.04862942526844889
0.04862944261930255
0.04862946158998194
0.04862948230732727
0.04862950465261236
0.0486295279149419
0.04862955143265205
0.04862957587943609
0.04862960251089161
0.04862963192507818
0.04862966440801043
0.04862970030977477
0.0486297400674735
0.04862978418174732
0.04862983321800908
0.04862988781708789
0.04862994870620937
0.04863001671012399
0.0486300927634141
0.04863017792477214
0.04863027339154185
0.04863038051388937
0.04863050081155221
0.0486306359906908
0.04863078796057323
0.04863095885020369
0.04863115102492185
0.04863136710263723
0.04863160996899499
0.04863188279061886
0.04863218902681322
0.04863253244248945
0.04863291710968441
0.04863334739252374
0.04863382793256202
0.04863436361640902
0.04863495952660576
0.04863562089521025
0.04863635307121747
0.04863716125117905
0.04863804924863049
0.04863901843227492
0.04864008297662253
0.04864126393484768
0.04864256368274592
0.04864397660015588
0.04864550334689102
0.04864715099964818
0.04864893114152927
0.04865085828927274
0.04865294790925814
0.04865521320115175
0.04865766005116689
0.04866028003977774
0.04866304244446549
0.04866588638076983
0.0486687114712329
0.04867137041717694
0.04867368129563147
0.04867557248719578
0.04867773724669733
0.04868028827065179
0.04868208632626633
0.04868385248159944
0.04868558511629036
0.04868732503020376
0.0486891298746387
0.04869101911872811
0.04869298577546016
0.04869501344052361
0.04869708019901836
0.04869915486543374
0.04870119569061301
0.04870315002906735
0.04870494085555761
0.04870648202017699
0.04870764756545736
0.04870828239571446
0.04870819444976412
0.0487071090727428
0.048704763660569
0.04870047051976356
0.04869387722810051
0.0486889698862423
0.04865234610760418
0.04870703729427792
0.04853414966893038
0.0486901338805329
0.04838764839292366
0.04914138673460167
0.04573687375734392
0.04798417058563641
0.04798417357590627
0.04798417696103045
0.04798418030711757
0.04798418377413801
0.04798418756925513
0.04798419187993148
0.0479841968414235
0.04798420252595206
0.04798420891648814
0.04798421569605714
0.04798422304164483
0.04798423137661078
0.04798424061214055
0.04798425076359421
0.04798426187452363
0.04798427399303853
0.04798428718273369
0.04798430153672788
0.04798431718002906
0.04798433421841407
0.04798435252857446
0.04798437145123244
0.04798439043165019
0.0479844101341169
0.04798443164903438
0.04798445545497122
0.04798448179111112
0.04798451095936204
0.04798454333640096
0.04798457935560515
0.0479846195096759
0.04798466436063506
0.04798471455051882
0.04798477081262735
0.04798483398400638
0.04798490501915888
0.04798498500451276
0.04798507517519884
0.04798517693271328
0.04798529186337196
0.04798542175745051
0.04798556862889617
0.04798573473563223
0.04798592260040238
0.04798613503196782
0.04798637514624206
0.04798664638647922
0.04798695253971285
0.04798729774463731
0.04798768649934108
0.04798812365758218
0.04798861441139956
0.0479891642580501
0.0479897789578444
0.04799046449291275
0.04799122692489987
0.04799207176068815
0.04799300324336615
0.04799402918747443
0.04799518143207974