/*--------------------------------*- C++ -*----------------------------------*\
| =========                 |                                                 |
| \\      /  F ield         | OpenFOAM: The Open Source CFD Toolbox           |
|  \\    /   O peration     | Version:  v1812                                 |
|   \\  /    A nd           | Web:      www.OpenFOAM.com                      |
|    \\/     M anipulation  |                                                 |
\*---------------------------------------------------------------------------*/
FoamFile
{
    version     2.0;
    format      ascii;
    class       surfaceScalarField;
    location    "0.00000125";
    object      phi;
}
// * * * * * * * * * * * * * * * * * * * * * * * * * * * * * * * * * * * * * //

dimensions      [0 3 -1 0 0 0 0];
oriented        oriented;


internalField   nonuniform List<scalar> 
87612
(
1.566450822634373e-06
3.535407865756831e-08
3.073196320636963e-06
1.066271917126782e-07
4.529265201534237e-06
1.805229251782481e-07
5.941962351919997e-06
2.589327816452157e-07
7.31757195088894e-06
3.431305046040886e-07
8.662682533430425e-06
4.331519542534057e-07
9.985266677182995e-06
5.280429427216865e-07
1.129427041858502e-05
6.273526075485981e-07
1.259780090580928e-05
7.325389501097904e-07
1.390273958807061e-05
8.455477692606399e-07
1.521536358356091e-05
9.678096839063705e-07
1.654160710534387e-05
1.100606041827493e-06
1.788724873558901e-05
1.245149848531144e-06
1.925806073403577e-05
1.402631369450468e-06
2.065988149627518e-05
1.574303529520727e-06
2.209860464077091e-05
1.761574811194927e-06
2.358012733153621e-05
1.96606058858698e-06
2.511029573280027e-05
2.189597686923393e-06
2.669487162573657e-05
2.434236118106211e-06
2.833952111315448e-05
2.702231186166443e-06
3.004981697335069e-05
2.996045436838646e-06
3.183124404787697e-05
3.318362730351973e-06
3.368920527536245e-05
3.672106345843687e-06
3.562902320681837e-05
4.06046401672006e-06
3.765593611509047e-05
4.486915778152425e-06
3.977509073385135e-05
4.955261861014024e-06
4.199152965187817e-05
5.469654818692549e-06
4.431017308865883e-05
6.034634383590792e-06
4.673579466579639e-05
6.655165369879146e-06
4.927299072915486e-05
7.336678922610385e-06
5.192614276279809e-05
8.085117364370712e-06
5.46993724323308e-05
8.906982927432053e-06
5.759648879546325e-05
9.809390673878273e-06
6.062092722149017e-05
1.0800125900936e-05
6.377567959944305e-05
1.188770639005501e-05
6.70632154521431e-05
1.308144979926004e-05
7.048539373205046e-05
1.439154650809691e-05
7.404336529004011e-05
1.582913811896906e-05
7.77374663975765e-05
1.740640176246541e-05
8.15671040957846e-05
1.913664031274539e-05
8.55304565858014e-05
2.103455671898288e-05
8.962405683638114e-05
2.311646808937123e-05
9.384256932194976e-05
2.540021851342694e-05
9.817867194306307e-05
2.790518925483294e-05
0.0001026228990118403
3.065246330721528e-05
0.0001071634393847094
3.366500701607275e-05
0.0001117858816385282
3.696787196216849e-05
0.0001164729067144768
4.058840962099037e-05
0.0001212039649348241
4.455646352564015e-05
0.0001259550639336712
4.890445054008508e-05
0.0001306989529388604
5.366717374678882e-05
0.0001354061590926165
5.888119822317132e-05
0.0001400472215252805
6.458390129931322e-05
0.0001445954466845225
7.081322131968094e-05
0.000149027267037904
7.761034822359164e-05
0.0001533154034133377
8.502723998447854e-05
0.0001574214622119886
9.312753608130625e-05
0.000161298526773792
0.0001019769427680917
0.0001648972697890773
0.0001116401248746414
0.0001681687313205786
0.0001221844899183549
0.000171068367243211
0.0001336794069872497
0.0001735579621415012
0.0001461988752514929
0.0001755954368278332
0.0001598342093734635
0.0001771301152818144
0.0001746892116956675
0.0001781165185670636
0.00019086233277436
0.0001785276911731543
0.000208447887453299
0.0001783401743235082
0.0002275652228089066
0.0001775536265611947
0.0002483249580212629
0.0001762149246398139
0.0002708254698903924
0.0001744704539953463
0.0002951257546331759
0.0001724440258533407
0.0003214209460010318
0.0001702537222781902
0.0003499046334539974
0.0001679561775478692
0.0003808427826194894
0.0001654039838639386
0.00041466208774283
0.0001626393548947067
0.0004514153219785494
0.0001596736867336682
0.0004913971903600755
0.0001564906985115539
0.0005349226559015554
0.0001530777581064771
0.0005823008292042151
0.000149427310966142
0.000633867124029885
0.0001455316702356017
0.000689992354859714
0.00014138419514835
0.0007510790256769059
0.0001369798546049096
0.0008175648590126876
0.0001323152890472213
0.0008899264705274202
0.0001273896495169022
0.0009686820456296337
0.0001222065884249933
0.001054393948391696
0.0001167713773982335
0.001147677688226115
0.0001110909355585053
0.001249203465639541
0.0001051751618526526
0.001359699720605245
9.903698137539098e-05
0.001479959700877175
9.269247962491158e-05
0.001610847123749897
8.616039778333312e-05
0.001753303076141499
7.946216584214189e-05
0.001908352291640653
7.262161044436152e-05
0.002077110896097769
6.5661357489445e-05
0.002260797789854442
5.859632046162756e-05
0.002460746356527836
5.145797299320443e-05
0.002678383252168022
4.42853110107142e-05
0.002915272137782562
3.709905218148339e-05
0.003173141789528922
2.978237061102982e-05
0.00345399191537054
2.22865978375269e-05
0.003759781637573298
1.453123056895594e-05
0.004092749825368704
6.387298375951503e-06
0.004455347674892917
-2.344505981621931e-06
0.004850261297357691
-1.196798465622938e-05
0.005280442898274632
-2.295335731196879e-05
0.005749159107455845
-3.603273802538995e-05
0.006260046921613511
-5.206660619009749e-05
0.006816909073564805
0.007351830288409909
6.507897630350908e-09
2.884617692008676e-08
2.576427054394235e-08
8.737081424638405e-08
5.787975798704844e-08
1.484074335246713e-07
1.031785744822446e-07
2.136339612490588e-07
1.617175621102408e-07
2.845915134688603e-07
2.324800343055933e-07
3.62389478823977e-07
3.131244906903505e-07
4.473984835959268e-07
4.011246443274116e-07
5.393524513388567e-07
4.956426196765395e-07
6.380209726878841e-07
5.973827169878911e-07
7.438076699913934e-07
7.071385364734038e-07
8.580538629591632e-07
8.255447288606315e-07
9.821998479995191e-07
9.53366197714366e-07
1.117328378677313e-06
1.091488637128928e-06
1.264508929004057e-06
1.240892671727499e-06
1.424899494280727e-06
1.402642906721738e-06
1.599824575463064e-06
1.577886042607843e-06
1.790817452285199e-06
1.767857610167194e-06
1.999626118825649e-06
1.973890138853098e-06
2.228203589159749e-06
2.197419566693263e-06
2.478701757916964e-06
2.439992059361757e-06
2.753472944004159e-06
2.703271563931625e-06
3.05508322545672e-06
2.989048818701332e-06
3.386329090967345e-06
3.299254535926321e-06
3.750258299229427e-06
3.63597486694332e-06
4.150195447069835e-06
4.001465901582731e-06
4.589770826147778e-06
4.398168029634309e-06
5.072952690603208e-06
4.828720444956489e-06
5.604081968072497e-06
5.295975912415007e-06
6.187909902399642e-06
5.803015775434228e-06
6.829639059414985e-06
6.353165095426204e-06
7.534968044373125e-06
6.950007722165686e-06
8.310140300531652e-06
7.597401019644853e-06
9.161997376401929e-06
8.299489852425749e-06
1.009803706800646e-05
9.060719293412851e-06
1.112647694907956e-05
9.88584525809e-06
1.225632383444217e-05
1.077994189477305e-05
1.349744987142976e-05
1.174840396775138e-05
1.486067604585574e-05
1.279694168711456e-05
1.63578640431232e-05
1.393156460526832e-05
1.800201739446151e-05
1.515857092365309e-05
1.980755040061996e-05
1.648453110842787e-05
2.179050790446879e-05
1.791622850418091e-05
2.396852111769575e-05
1.946056600085667e-05
2.636085175802984e-05
2.112445552068692e-05
2.898857378740618e-05
2.291469431515655e-05
3.187476822147522e-05
2.483783489638435e-05
3.504473138095895e-05
2.690004980651863e-05
3.85261947107245e-05
2.910696245359765e-05
4.234955087857855e-05
3.146333657402287e-05
4.654807641952417e-05
3.397237211437706e-05
5.115813820644903e-05
3.663419561534182e-05
5.62193747220649e-05
3.944323677650051e-05
6.177486013816663e-05
4.238517006392741e-05
6.787128803210105e-05
4.543629473703949e-05
7.45592235504815e-05
4.857012181640735e-05
8.189341290494801e-05
5.176465594297685e-05
8.993300195473446e-05
5.500007336720473e-05
9.874152534368386e-05
5.825335358596219e-05
0.0001083868446558597
6.149767957952746e-05
0.0001189401639245914
6.470119216251664e-05
0.0001304758944042194
6.782465509035931e-05
0.0001430754123234312
7.082037193212173e-05
0.0001568384925316194
7.36329645196678e-05
0.0001718766191078489
7.62016270626981e-05
0.0001882936702311548
7.846430897421005e-05
0.0002061852055413879
8.038786612165676e-05
0.0002256416656611103
8.192482134484298e-05
0.00024678800279736
8.301299617105402e-05
0.000269737295063428
8.358010439703813e-05
0.0002945586464058787
8.367779478211014e-05
0.0003213232556148435
8.349786776661387e-05
0.0003500845604678994
8.328015434919228e-05
0.0003810604960359295
8.315526214929642e-05
0.0004147869799413165
8.301378884835724e-05
0.0004515567952787728
8.284356971792562e-05
0.0004915674094893199
8.265401167844529e-05
0.0005351122139405578
8.243370361594302e-05
0.0005825211372657733
8.217251921008074e-05
0.0006341283084354803
8.185964303694383e-05
0.0006903052310320031
8.14820995444041e-05
0.0007514565691693228
8.102484431051353e-05
0.0008180221142459157
8.047055004354632e-05
0.0008904807647943686
7.979899511767263e-05
0.0009693536005549764
7.898493872086757e-05
0.001055208004788581
7.800144524787146e-05
0.001148661181698671
7.681969637278848e-05
0.001250385214514769
7.540833499600159e-05
0.001361111081981665
7.373335897352025e-05
0.001481634676899824
7.175819903121748e-05
0.001612822283691894
6.944440419404223e-05
0.001755616870978845
6.675179528387894e-05
0.001911044900550561
6.363882521653466e-05
0.002080223866165274
6.006286299585518e-05
0.002264373752074906
5.595859186984629e-05
0.002464850627653977
5.1275333062949e-05
0.00268306651097474
4.595342272510154e-05
0.002920594048120527
3.994415126249091e-05
0.003179151060991403
3.329673323751849e-05
0.003460639333395612
2.598783302030051e-05
0.003767090537790414
1.798999739102492e-05
0.004100747660998056
9.278922398551118e-06
0.004464058749885322
-1.660021710257766e-07
0.004859706221927299
-1.03483916296275e-05
0.005290625287733215
-2.121012825559119e-05
0.005760020844081827
-3.264847754290898e-05
0.006271485270900852
-4.328586526748803e-05
0.006827546461289407
0.00730854442314242
-2.654001257283487e-09
3.150017885564971e-08
-1.069268979993958e-08
9.540950334027286e-08
-2.434150415483544e-08
1.620562483343419e-07
-4.393501824547245e-08
2.332274755784832e-07
-6.976594437749565e-08
3.10422439749303e-07
-1.017197728030952e-07
3.943433072688767e-07
-1.387094046759041e-07
4.843881154488766e-07
-1.782856530714618e-07
5.789286996523433e-07
-2.168996219839401e-07
6.76634941531833e-07
-2.507008746673803e-07
7.776089225831135e-07
-2.763560783823424e-07
8.837090666132342e-07
-2.911229088016766e-07
9.969666783386969e-07
-2.926406314042426e-07
1.118846101237428e-06
-2.78939171315346e-07
1.250807468853077e-06
-2.484156838254451e-07
1.394376006765138e-06
-1.997470239551506e-07
1.551155915544173e-06
-1.317751503457593e-07
1.722845578662315e-06
-4.340021631186624e-08
1.91125118475304e-06
6.64984823763242e-08
2.118304890465786e-06
1.99114883038223e-07
2.346085357224062e-06
3.55747062312356e-07
2.596840764729283e-06
5.378159641413658e-07
2.873014323599725e-06
7.468710465176343e-07
3.1772740085925e-06
9.845797547470933e-07
3.512549590974671e-06
1.252687162986235e-06
3.882088038834546e-06
1.552993588026498e-06
4.289464401085081e-06
1.8874118068753e-06
4.738534471758645e-06
2.258019730220627e-06
5.23347404470591e-06
2.667065615362834e-06
5.778864017262084e-06
3.116973837873754e-06
6.37973083688446e-06
3.610351320650619e-06
7.041590561602216e-06
4.149994673681035e-06
7.770496947482237e-06
4.738898061497996e-06
8.573093988590557e-06
5.380261774236462e-06
9.456673355248557e-06
6.077501452055409e-06
1.042923727126795e-05
6.834257895017904e-06
1.14995673914623e-05
7.654407361328104e-06
1.267730040512769e-05
8.542072238254497e-06
1.397301116891416e-05
9.501631963274057e-06
1.539830431811264e-05
1.053773393882185e-05
1.696591541889858e-05
1.165537137662245e-05
1.868991296282894e-05
1.285992520964722e-05
2.058595407143148e-05
1.41571152772491e-05
2.267133105010416e-05
1.555297831252763e-05
2.496498872273889e-05
1.705384894948055e-05
2.748770315046471e-05
1.866633973896327e-05
3.026227743198366e-05
2.039731653855317e-05
3.331375458138016e-05
2.22538631988357e-05
3.666964805043672e-05
2.424322161140146e-05
4.036019246602429e-05
2.637267646542968e-05
4.441862156549101e-05
2.864933559097301e-05
4.888147908091864e-05
3.10797512708338e-05
5.378895904220244e-05
3.36693497943906e-05
5.918526161462145e-05
3.642169991269923e-05
6.511893791379296e-05
3.933773340911204e-05
7.16431900540807e-05
4.241503674357918e-05
7.881610957048537e-05
4.564715750935139e-05
8.670088118897336e-05
4.902270800000115e-05
9.536597485304192e-05
5.252427444107084e-05
0.0001048852782148053
5.612619032783029e-05
0.0001153382480378413
5.979191011785955e-05
0.0001268101746142016
6.347475012585123e-05
0.0001393925723154535
6.713010230170086e-05
0.0001531831403557762
7.072272117307036e-05
0.0001682840002364967
7.421742506598836e-05
0.0001847989663382413
7.757225702021119e-05
0.0002028303735871902
8.07194294684897e-05
0.0002224944932128336
8.357043302394897e-05
0.0002439369992419208
8.601189620269933e-05
0.0002672958318846651
8.787878827425124e-05
0.0002926917543343552
8.899392892732876e-05
0.0003202081149617315
8.921960516463919e-05
0.0003498588842306091
8.864332771640569e-05
0.0003816367734840468
8.776119372203142e-05
0.0004156691139356724
8.683100221316098e-05
0.0004524869867874049
8.586589667312687e-05
0.0004925325150293003
8.481307412382332e-05
0.0005361650364896085
8.3676987068492e-05
0.0005836572243209834
8.245479119622068e-05
0.0006353505043074465
8.114147064219144e-05
0.0006916185515858397
7.9731566343098e-05
0.0007528664734680705
7.821966033440713e-05
0.0008195340202543539
7.660029176810663e-05
0.0008921001333603006
7.486789413530803e-05
0.0009710859981874802
7.30108461036156e-05
0.001057065052819886
7.101741672292173e-05
0.00115065461107903
6.88774647512035e-05
0.001252525166486112
6.657987134210939e-05
0.001363408675390413
6.411201349767439e-05
0.001484102534743918
6.145941837169221e-05
0.00161547487881753
5.860530328962401e-05
0.001758470986060603
5.553022122094109e-05
0.001914119982618921
5.221161284247492e-05
0.002083542474543493
4.862604190622163e-05
0.002267959323010873
4.477737551846295e-05
0.002468699294041518
4.063485795657738e-05
0.002687209028536366
3.616287273178241e-05
0.002925066033345169
3.132532849572137e-05
0.003183988605227209
2.610116643466582e-05
0.003465863495456528
2.043301351865557e-05
0.00377275869070618
1.426571913691763e-05
0.004106914955379647
7.536584779288102e-06
0.004470787884242759
1.738079207081398e-07
0.004867068998785777
-7.91905274759313e-06
0.00529871814840141
-1.690188691166766e-05
0.005769003678245866
-2.683720156933174e-05
0.006281420585558491
-3.512445179225314e-05
0.00683583371151231
0.007273419971350166
1.286195253947715e-09
3.021398487585956e-08
5.182138579656356e-09
9.151356151464873e-08
1.179893276527352e-08
1.554394557146706e-07
2.131277953609096e-08
2.237136302234682e-07
3.393100827016329e-08
2.978042123893086e-07
4.982244528841628e-08
3.784518714223287e-07
6.905084974132019e-08
4.651597120288357e-07
9.159675185071069e-08
5.563827983312703e-07
1.174618155713756e-07
6.50769878445139e-07
1.467635378225991e-07
7.483072008068078e-07
1.797315271496528e-07
8.507410776631094e-07
2.166504037279751e-07
9.60047802045631e-07
2.578492712514525e-07
1.077647233933981e-06
3.037153934964815e-07
1.204941346777072e-06
3.546941996074239e-07
1.343397200785179e-06
4.112896214650655e-07
1.494560493787793e-06
4.740694332610415e-07
1.660065766945833e-06
5.436704785419168e-07
1.841650139535951e-06
6.208056940218198e-07
2.041169675034281e-06
7.06273497487004e-07
2.26061755379744e-06
8.009656171197203e-07
2.502148645128449e-06
9.058681283613191e-07
2.768111812383769e-06
1.022043416031964e-06
3.061098720943922e-06
1.150568523710992e-06
3.384024483312236e-06
1.292507988596944e-06
3.740148573963014e-06
1.448988271157305e-06
4.1329841185372e-06
1.62125372852931e-06
4.566269014396919e-06
1.810669270246895e-06
5.044058502996234e-06
2.018728914675474e-06
5.570804372841821e-06
2.247065582018852e-06
6.151394169547687e-06
2.497462177574132e-06
6.791193966051954e-06
2.771864067931253e-06
7.496095057130716e-06
3.072393096445315e-06
8.272564960080037e-06
3.401363331305437e-06
9.127703120392883e-06
3.761298808593801e-06
1.006930179398257e-05
4.154953638334048e-06
1.110591256172445e-05
4.585335007886466e-06
1.224691903557759e-05
5.055729854866091e-06
1.350261632193621e-05
5.569736281427433e-06
1.48842978915519e-05
6.131301070127489e-06
1.640435063020026e-05
6.744773456373661e-06
1.807644057658151e-05
7.414980181900372e-06
1.991574734590669e-05
8.147300931185426e-06
2.193901030081663e-05
8.947740753138419e-06
2.416454890078628e-05
9.823014761306946e-06
2.661242914229489e-05
1.07806468147346e-05
2.93046453785552e-05
1.182908420035976e-05
3.226531719575229e-05
1.297783047828378e-05
3.552090177251096e-05
1.423699694036381e-05
3.910102600393836e-05
1.561672255525572e-05
4.303889595059814e-05
1.71272539940742e-05
4.737094764209372e-05
1.877912358224164e-05
5.2137089454032e-05
2.058327296610829e-05
5.738111223074651e-05
2.255104931990239e-05
6.31511615599954e-05
2.46939560850425e-05
6.950028328893203e-05
2.702304070378884e-05
7.648702495173515e-05
2.954788735002467e-05
8.417603454272562e-05
3.227534605187919e-05
9.263851615118197e-05
3.520836483028187e-05
0.0001019522594363851
3.834443963275795e-05
0.0001122021732353562
4.167385243017125e-05
0.0001234807618167669
4.517809854092022e-05
0.00013588832620469
4.882855150251888e-05
0.0001495326873941485
5.258426323724189e-05
0.0001645282885017499
5.638873316786643e-05
0.000180994496407574
6.01656866354719e-05
0.0001990534201195381
6.383220047709919e-05
0.0002188279793711465
6.732849481998035e-05
0.000240440704898959
7.060991399445999e-05
0.0002640144127100839
7.360494298835633e-05
0.0002896967253403231
7.617254745771988e-05
0.0003176405104921681
7.80650511177848e-05
0.0003479663805702438
7.901584872379276e-05
0.0003806859758776676
7.89685881930071e-05
0.0004157163744659355
7.838506309163005e-05
0.0004530705118883125
7.764362509872402e-05
0.00049327395302169
7.689190559528543e-05
0.0005369167559926776
7.607065199093544e-05
0.0005844784779248789
7.516233223687569e-05
0.0006362588240612294
7.416089860489853e-05
0.0006926199852174608
7.305996980673503e-05
0.0007539674022660468
7.185167008947467e-05
0.0008207423199713587
7.052632772239713e-05
0.0008934254757272537
6.907325145562105e-05
0.0009725390744540731
6.748608869361946e-05
0.001058652215581836
6.575658809045814e-05
0.001152384111682073
6.387382724705406e-05
0.001254407927329492
6.182645089842113e-05
0.001365456051738958
5.960250930182888e-05
0.0014863264763405
5.718772524252753e-05
0.001617889662876769
5.456899492186353e-05
0.001761089716381269
5.173265251226478e-05
0.00191695632502845
4.866446785101206e-05
0.002086610659204744
4.534955884861373e-05
0.002271274232013207
4.177195297619399e-05
0.002472276899913931
3.791425610914604e-05
0.002691066725403359
3.375662900067181e-05
0.002929223660453627
2.927638115098607e-05
0.003188468853076875
2.444589059601731e-05
0.003470693986011498
1.922283769858796e-05
0.003777981743603627
1.357067850672839e-05
0.004112567114571544
7.445702150627281e-06
0.004476912860598872
7.978714337924238e-07
0.00487371682950262
-6.42319260591163e-06
0.005305939212441106
-1.43126669397331e-05
0.005776893152579673
-2.307805225764037e-05
0.006290185970876382
-2.695235843657908e-05
0.006839708017691237
0.007246467612913585
1.256855113654447e-09
2.89571297287676e-08
5.06348236214227e-09
8.770693429380127e-08
1.152697533843122e-08
1.489759628485133e-07
2.081289470163758e-08
2.144277110135235e-07
3.309731151483062e-08
2.855197958027779e-07
4.845934775062995e-08
3.630898353961387e-07
6.675489944673543e-08
4.46864160562738e-07
8.76294019678664e-08
5.355082959971361e-07
1.107291780956894e-07
6.276701024875785e-07
1.359548965326999e-07
7.23081482498807e-07
1.634334847628412e-07
8.232624895483383e-07
1.93325460198928e-07
9.301558266966527e-07
2.257937374545658e-07
1.045178956749768e-06
2.610442297111953e-07
1.169690854574848e-06
2.993290945231899e-07
1.305112336017761e-06
3.409451756922853e-07
1.452944412651301e-06
3.862334425298867e-07
1.614777500135758e-06
4.35580265660171e-07
1.7923033164258e-06
4.894198567964702e-07
1.987330083914924e-06
5.482361214166601e-07
2.201801289188844e-06
6.125643508625192e-07
2.437820415693263e-06
6.829882142387712e-07
2.697687949012997e-06
7.60123703933316e-07
2.983963231255653e-06
8.445743820883768e-07
3.299573805159622e-06
9.36946399420435e-07
3.64777655663531e-06
1.037940856196407e-06
4.031989661761087e-06
1.148359994683508e-06
4.455849875912106e-06
1.269067775916037e-06
4.923350721761036e-06
1.400993751825042e-06
5.43887839693297e-06
1.545136942087325e-06
6.007250979280408e-06
1.702569683521331e-06
6.633761224618053e-06
1.874441417666818e-06
7.324223322979978e-06
2.061982379248398e-06
8.085023998497427e-06
2.266507146941662e-06
8.923178352694197e-06
2.489418022201345e-06
9.846390918720527e-06
2.73220821087255e-06
1.086312237304583e-05
2.99646480311316e-06
1.198266244333392e-05
3.283871581451703e-06
1.321520954358897e-05
3.596211742899107e-06
1.457195773010097e-05
3.935370753253296e-06
1.606519161983614e-05
4.303421375951423e-06
1.770838995387963e-05
4.70283024081151e-06
1.951633848103524e-05
5.136587630417544e-06
2.150525291120511e-05
5.608223588173208e-06
2.36929129430197e-05
6.121844099989027e-06
2.609880863047248e-05
6.682189209839821e-06
2.874430026869133e-05
7.294713211953113e-06
3.165279319363229e-05
7.965685732365543e-06
3.484992925208358e-05
8.702366455442621e-06
3.836434528085313e-05
9.51321922136844e-06
4.222804318465645e-05
1.040810711072941e-05
4.647605975272339e-05
1.139852996494732e-05
5.114666659979674e-05
1.249695008678843e-05
5.628269210889511e-05
1.371595060421074e-05
6.193216104255397e-05
1.506853482294602e-05
6.814769907018451e-05
1.656865306760201e-05
7.498690670705605e-05
1.823166956259628e-05
8.251301804771469e-05
2.007452873283052e-05
9.079565698092349e-05
2.211510377588392e-05
9.991168439331254e-05
2.437113398211003e-05
0.0001099461430291015
2.685859794166167e-05
0.0001209932978571916
2.958920984189255e-05
0.0001331577143044182
3.256676778149184e-05
0.0001465551294545152
3.578265535727203e-05
0.0001613124009259141
3.921213635943997e-05
0.0001775650154053564
4.280960380130829e-05
0.0001954559526775923
4.650526171967525e-05
0.000215132321452713
5.020605364588319e-05
0.0002367399129726512
5.380270560888855e-05
0.0002604177607469915
5.720327555830519e-05
0.0002862961553907751
6.034465799464146e-05
0.0003144991280556991
6.313031581385846e-05
0.0003451807227508168
6.532480700870343e-05
0.0003784914846825755
6.657563146915898e-05
0.0004144655500051014
6.673069057780362e-05
0.0004529154527792632
6.622398635823376e-05
0.0004937806572407702
6.555633002280435e-05
0.0005375844123277317
6.485705767267589e-05
0.0005851777502745925
6.410924818785676e-05
0.0006370066335457987
6.329741980270864e-05
0.000693431813602293
6.241381583055128e-05
0.0007548510062380262
6.145067350037074e-05
0.0008217054623012928
6.040031292225514e-05
0.0008944758363052468
5.92544741248818e-05
0.0009736849132512645
5.800513806858435e-05
0.00105990155163805
5.664312435114024e-05
0.001153746125399396
5.515775146105938e-05
0.001255893300219515
5.353730378968775e-05
0.001367076499410238
5.176898467232997e-05
0.001488094795457821
4.983861727571321e-05
0.00161982003027334
4.773099429622341e-05
0.001763197339360744
4.542968863436196e-05
0.001919257630690293
4.291698837415641e-05
0.002089123359464936
4.017385498215786e-05
0.002274017365405202
3.717975707949953e-05
0.002475270997816591
3.391287842220487e-05
0.002694333604060638
3.034995380088766e-05
0.002932786585074927
2.64663308919636e-05
0.00319235247598575
2.223833135877356e-05
0.003474921985544636
1.765019536234596e-05
0.00378256987959998
1.26757090167587e-05
0.004117541600917068
7.287156200661536e-06
0.004482301413414905
1.455934003699868e-06
0.00487954805169952
-4.829866325561746e-06
0.005312225012770332
-1.154460999138872e-05
0.005783607896245479
-1.922980460541617e-05
0.006297871165490395
-1.672897277523426e-05
0.006837207185861048
0.007229738640138353
8.998370730989881e-10
2.805729268533383e-08
3.625268427729774e-09
8.498150294489414e-08
8.253234518244886e-09
1.443479966396235e-07
1.490389325487056e-08
2.077770521674376e-07
2.371002377708981e-08
2.767136650507255e-07
3.474642027002121e-08
3.520534387359608e-07
4.794035974821468e-08
4.336702208508641e-07
6.306287138461262e-08
5.203857842142421e-07
7.986258204719651e-08
6.10870391643947e-07
9.820463261514471e-08
7.047394318306241e-07
1.181749879631668e-07
8.032921340778906e-07
1.399337412587601e-07
9.08397073339166e-07
1.636095681496182e-07
1.021503129777288e-06
1.893586508458729e-07
1.143941771842334e-06
2.173708574870129e-07
1.277100129319917e-06
2.47868714604554e-07
1.422446555513947e-06
2.811062117553202e-07
1.581540002945736e-06
3.173685853377446e-07
1.756040942832535e-06
3.569731232345656e-07
1.947725545988757e-06
4.002707866966106e-07
2.15850362572183e-06
4.476482625981341e-07
2.390442939766578e-06
4.995296844211177e-07
2.645806527187017e-06
5.563764135475329e-07
2.927116502107075e-06
6.186815443583238e-07
3.237268674346636e-06
6.869761556350023e-07
3.579481945338306e-06
7.618394553798209e-07
3.957126362012771e-06
8.438991900301294e-07
4.37379014124178e-06
9.338350774395017e-07
4.833414834348574e-06
1.032382377262529e-06
5.34033109708992e-06
1.140335564467355e-06
5.899297792070913e-06
1.258552071844736e-06
6.515544717221022e-06
1.38795607016661e-06
7.194819324652109e-06
1.529542248191934e-06
7.943437820452369e-06
1.684379550035119e-06
8.768341050844261e-06
1.853614822225486e-06
9.677155646511292e-06
2.038476319793378e-06
1.067826087546981e-05
2.240277019266348e-06
1.178086174384198e-05
2.46041768911197e-06
1.299506887373364e-05
2.70038967409499e-06
1.433198574509938e-05
2.961777362685692e-06
1.580380393123573e-05
3.246260324895653e-06
1.742390699165141e-05
3.555615037778848e-06
1.920698376814044e-05
3.891715968369637e-06
2.11691519805966e-05
4.256535879170394e-06
2.33280930322071e-05
4.652145435820021e-06
2.570319907380593e-05
5.080712276048701e-06
2.831573342845057e-05
5.544499823286135e-06
3.118900564637985e-05
6.045866487740125e-06
3.434856258761706e-05
6.587814626151174e-06
3.782239714242907e-05
7.174683053974789e-06
4.164117475682029e-05
7.812263797596454e-06
4.583847900908929e-05
8.507849906181538e-06
5.045108049119891e-05
9.270411215690923e-06
5.552013079937517e-05
1.011085863420055e-05
6.109171362403245e-05
1.104158271965484e-05
6.72169749847225e-05
1.207538631380027e-05
7.39531031129e-05
1.322528275980151e-05
8.136312160170881e-05
1.45050770069657e-05
8.951586273374831e-05
1.592992752889233e-05
9.848683387138442e-05
1.751682051754639e-05
0.0001083592500404392
1.928490495883118e-05
0.0001192252134159085
2.125560602792627e-05
0.0001311870132353198
2.34522294178334e-05
0.0001443585060646188
2.589811872431124e-05
0.0001588665116194398
2.861103345159249e-05
0.0001748521006780942
3.159554718585857e-05
0.0001924714389433437
3.483291505253853e-05
0.0002118949535860703
3.827119259228947e-05
0.0002333016354329325
4.182089625825567e-05
0.0002568680570810841
4.535884204036588e-05
0.0002827582096087234
4.87436116447875e-05
0.000311114358451365
5.186605918764314e-05
0.0003420582752080589
5.464622168919489e-05
0.0003757113221811744
5.690151344751614e-05
0.0004122102582469746
5.820380240670705e-05
0.0004516131638203816
5.835512548219732e-05
0.0004936293341656405
5.781655449274905e-05
0.0005381229833175947
5.717558431776822e-05
0.0005858187204499825
5.648006910176256e-05
0.0006377021487621857
5.572506058677823e-05
0.0006941868221176646
5.490414070374897e-05
0.0007556719261213975
5.401149027602028e-05
0.0008225981127293715
5.304080307616708e-05
0.000895446523505409
5.198531781954234e-05
0.0009747403985081997
5.083773933278844e-05
0.001061049130125078
4.959014021594015e-05
0.001154993724516532
4.82338511032458e-05
0.00125724958933245
4.675941082575231e-05
0.00136855093968799
4.515667195696875e-05
0.001489697534326804
4.341657629888485e-05
0.001621560125931646
4.152705762898293e-05
0.00176508685803081
3.947486955685138e-05
0.001921309818762618
3.724551986503123e-05
0.002091352709156888
3.482321021730843e-05
0.002276439675053086
3.219070370944417e-05
0.002477903504324547
2.932945534137781e-05
0.002697194852428851
2.621960932924542e-05
0.00293589643108714
2.284020594952736e-05
0.003195731879365621
1.917026970058973e-05
0.003478591921793664
1.519073335827637e-05
0.003786549415942452
1.088066041621055e-05
0.004121851673859226
6.220290026239386e-06
0.004486961783805011
1.183864460483203e-06
0.004884584477265368
-4.242551971851822e-06
0.005317651429202754
-9.905186463158298e-06
0.005789270530736837
-1.633056718882767e-05
0.006304296546216102
-7.204743198965552e-06
0.006828081361871213
0.007222533896939391
7.556284429649459e-10
2.730166493448878e-08
3.044304212438659e-09
8.26928280279448e-08
6.930701797998423e-09
1.404615998765651e-07
1.251580038369769e-08
2.02191954415396e-07
1.991074502269181e-08
2.693187211913419e-07
2.917450831701607e-08
3.427896761884555e-07
4.022838953506605e-08
4.226163402493483e-07
5.283389978398006e-08
5.077802745253542e-07
6.670779461756486e-08
5.96996497215342e-07
8.16652773325444e-08
6.897819494863177e-07
9.775398296056423e-08
7.872034286939796e-07
1.15099120250257e-07
8.910519362944626e-07
1.337832138535501e-07
1.002819036320101e-06
1.539106094556197e-07
1.123814376407106e-06
1.7561354000525e-07
1.255397198856687e-06
1.990505264864332e-07
1.39900956914934e-06
2.244046456821863e-07
1.556185883801077e-06
2.51882830485171e-07
1.72856275811472e-06
2.81716216453041e-07
1.917892160048247e-06
3.141612958712902e-07
2.12605854636796e-06
3.495014533481798e-07
2.355102782304946e-06
3.880480568430726e-07
2.607259923743027e-06
4.30139390591897e-07