/*--------------------------------*- C++ -*----------------------------------*\
| =========                 |                                                 |
| \\      /  F ield         | OpenFOAM: The Open Source CFD Toolbox           |
|  \\    /   O peration     | Version:  v1812                                 |
|   \\  /    A nd           | Web:      www.OpenFOAM.com                      |
|    \\/     M anipulation  |                                                 |
\*---------------------------------------------------------------------------*/
FoamFile
{
    version     2.0;
    format      ascii;
    class       surfaceScalarField;
    location    "0.00000125";
    object      phi;
}
// * * * * * * * * * * * * * * * * * * * * * * * * * * * * * * * * * * * * * //

dimensions      [0 3 -1 0 0 0 0];
oriented        oriented;


internalField   nonuniform List<scalar> 
87612
(
1.569865594706373e-06
3.193930639421605e-08
3.086954219396802e-06
9.628406489016247e-08
4.560594496800959e-06
1.629515284344695e-07
5.998605650519233e-06
2.336187781990073e-07
7.408031284358265e-06
3.093144695105264e-07
8.796462172984435e-06
3.898316480799709e-07
1.017293654081948e-05
4.741527184720523e-07
1.154721827422839e-05
5.620746154922345e-07
1.292772334629192e-05
6.555643651367132e-07
1.432115611205662e-05
7.570536857328987e-07
1.573309338976775e-05
8.684964015853687e-07
1.716804886614863e-05
9.918940872165849e-07
1.862949597285277e-05
1.129344371992242e-06
2.011990966558482e-05
1.283029675168257e-06
2.164086319685605e-05
1.455170760425348e-06
2.319323343824499e-05
1.647927714307452e-06
2.477757428187817e-05
1.863242435663012e-06
2.639465312526398e-05
2.10268724481263e-06
2.804602591958018e-05
2.367439216680263e-06
2.973449934332442e-05
2.658407249852552e-06
3.146440431046686e-05
2.976436329856235e-06
3.324159218551603e-05
3.322601929849017e-06
3.507306207832883e-05
3.698597680484707e-06
3.696630386870565e-05
4.107040157819136e-06
3.892871583754017e-05
4.551416717563763e-06
4.096734562453196e-05
5.035786692806533e-06
4.308886447557724e-05
5.564574885650873e-06
4.529954093496292e-05
6.142601361010706e-06
4.760522638865461e-05
6.775101493306449e-06
5.001138298088984e-05
7.467718393762071e-06
5.25231068209915e-05
8.226545557895804e-06
5.514513194888316e-05
9.058187469105998e-06
5.788181533555809e-05
9.969823650321678e-06
6.073710443182758e-05
1.096927523072785e-05
6.371448778216265e-05
1.206507541766004e-05
6.681692844009865e-05
1.326654499406089e-05
7.004678005959946e-05
1.458387316849392e-05
7.340568772846071e-05
1.602820200813645e-05
7.689448030237475e-05
1.761171029608181e-05
8.051305205312552e-05
1.934770626024666e-05
8.426024183480101e-05
2.125071942732094e-05
8.813369932557455e-05
2.333661084922226e-05
9.212974009930356e-05
2.562269022526565e-05
9.624319154015867e-05
2.812784043514062e-05
0.0001004672314394535
3.087265047670232e-05
0.0001047932197970725
3.387955903137554e-05
0.000109210521057771
3.717301295529814e-05
0.0001137063086795937
4.077964707517072e-05
0.0001182653394076968
4.472849101789174e-05
0.0001228696897556431
4.905119919104805e-05
0.0001274974210060432
5.378333150159149e-05
0.0001321213781797261
5.896444720331233e-05
0.0001367098209586589
6.463652095305944e-05
0.0001412282500342795
7.084301740337221e-05
0.0001456428254876467
7.762759312362748e-05
0.0001499242536638167
8.503394818382183e-05
0.0001540478998669545
9.310994867685351e-05
0.0001579837713912225
0.0001019181358057214
0.0001616917719432542
0.000111530867337959
0.0001651282767842295
0.0001220194466090094
0.0001682467767732224
0.000133460542920996
0.0001709914256191318
0.0001459438213040712
0.0001732984292922274
0.0001595646803868817
0.0001751044427112127
0.0001744178767309747
0.0001763526311712916
0.0001906005475998705
0.0001770012360126479
0.0002082104552185594
0.0001770199340621407
0.0002273590079104182
0.0001763964199703716
0.0002481619243516558
0.0001751669737310683
0.0002707162142092014
0.000173471724949927
0.0002950765327709924
0.0001714424022609047
0.0003214238405488662
0.0001692253995651808
0.0003499313325755999
0.000166886922322485
0.0003808837151326015
0.0001642857626435515
0.0004147110537388137
0.0001614826166622929
0.0004514538389911384
0.0001584779807387781
0.0004914361581234278
0.0001552523095976475
0.0005349653388210249
0.0001517962112855952
0.000582343987111931
0.0001481022361209368
0.0006339106520545766
0.0001441624812028592
0.0006900364690480002
0.0001399706542153705
0.0007511233775773942
0.0001355222968117592
0.0008176088758735649
0.0001308148123359876
0.00088996938944571
0.000125847505399357
0.00096872371303656
0.000120622099278791
0.001054436293420507
0.0001151430113947948
0.001147721565083924
0.0001094175487971714
0.00124924848639757
0.0001034561274421615
0.001359745368254976
9.727245167739644e-05
0.001480005196164704
9.088343116892564e-05
0.001610891642508429
8.431081008722912e-05
0.001753343615381641
7.758480666425416e-05
0.00190838006312292
7.073264572841293e-05
0.002077122501635794
6.378252709286195e-05
0.002260787655535516
5.676329269779079e-05
0.002460700553895035
4.969885165467918e-05
0.002678309345743071
4.26167681334855e-05
0.002915181559321167
3.551908150363489e-05
0.003173053217329818
2.829596909441109e-05
0.003453898346209203
2.090105764327564e-05
0.00375968077625111
1.325430622540276e-05
0.004092641209517855
5.227614423127061e-06
0.004455230434502256
-3.376504428216229e-06
0.004850133611851333
-1.28583213716798e-05
0.005280301236543455
-2.368422822034919e-05
0.005748999641648663
-3.658460485098736e-05
0.006259867917530632
-5.214091331477213e-05
0.006816431513863778
0.007351755981285233
4.588427665607861e-09
2.735087874713856e-08
1.803064761301786e-08
8.284184496434857e-08
4.027195508041998e-08
1.407102209874218e-07
7.137343943066381e-08
2.025172938682038e-07
1.110759400180262e-07
2.696119689345752e-07
1.581362121697548e-07
3.427713759399437e-07
2.103495705160457e-07
4.219393601388499e-07
2.657802416312913e-07
5.066439443853036e-07
3.243834342344802e-07
5.969611725382681e-07
3.872436508728997e-07
6.941934691019365e-07
4.553082369043281e-07
8.004318155583267e-07
5.294727453187924e-07
9.177295787998289e-07
6.107887549701866e-07
1.048028362335522e-06
7.004683715226678e-07
1.19335005860907e-06
7.998630248060493e-07
1.355776107145321e-06
9.104346616236157e-07
1.537356077484222e-06
1.033714569929223e-06
1.739962527350563e-06
1.171249646929182e-06
1.965152167806159e-06
1.324549676602161e-06
2.214139187000492e-06
1.495052439868671e-06
2.487904486584217e-06
1.684102221334767e-06
2.787386548382857e-06
1.892953519339575e-06
3.11375063183658e-06
2.12281990770612e-06
3.468731292114107e-06
2.374969340353703e-06
3.854890725167215e-06
2.650805619242976e-06
4.275580438668248e-06
2.95190949063947e-06
4.734682821407796e-06
3.280050699744074e-06
5.236433676544051e-06
3.637197708824121e-06
5.785454351927732e-06
4.025522404451931e-06
6.386776797674729e-06
4.447393889274366e-06
7.045846908937584e-06
4.905372222197256e-06
7.768567224970652e-06
5.402204233581524e-06
8.561355457718039e-06
5.940821050447734e-06
9.431206833452643e-06
6.524337295235826e-06
1.038575898593724e-05
7.156052527849076e-06
1.143336018504474e-05
7.839455869740249e-06
1.258314165216637e-05
8.578234224708949e-06
1.38450948135221e-05
9.376281998703834e-06
1.523015423413946e-05
1.023770419761102e-05
1.675028809717182e-05
1.11667983640828e-05
1.841861209377182e-05
1.216803201651748e-05
2.024948577488301e-05
1.32460149129581e-05
2.225862795277946e-05
1.440546406470636e-05
2.446324107351384e-05
1.565115978436582e-05
2.688214471547872e-05
1.698789207992074e-05
2.953591818114495e-05
1.84203992249584e-05
3.244705188633415e-05
1.995330471515917e-05
3.564010746509407e-05
2.159106425729555e-05
3.914188753303066e-05
2.333793638046805e-05
4.298161889471471e-05
2.519797811608473e-05
4.719115745542702e-05
2.717513443921463e-05
5.180617517845691e-05
2.92731202769917e-05
5.686646136553002e-05
3.149450235796498e-05
6.241513887207942e-05
3.383854903687237e-05
6.849897072446147e-05
3.629774699122374e-05
7.516839516926848e-05
3.885422260466432e-05
8.247747257037478e-05
4.14803712971199e-05
9.048379998438944e-05
4.415004183314796e-05
9.924846526968498e-05
4.684466687595148e-05
0.0001088362422951463
4.954709897553402e-05
0.000119317014509416
5.223720401281864e-05
0.0001307704378836979
5.489005313576889e-05
0.0001432909721811079
5.747272994219289e-05
0.0001569820035804403
5.994168434567711e-05
0.0001719489223274684
6.224339087925649e-05
0.0001882988410662687
6.431919295558146e-05
0.0002061346531422005
6.612241003583171e-05
0.0002255557908301189
6.760373224966137e-05
0.0002466806021377602
6.870288761071666e-05
0.0002696170588480645
6.935559777238894e-05
0.0002944238226091521
6.960098235526453e-05
0.0003211784559658531
6.960385105005564e-05
0.0003499284638806842
6.959295813690304e-05
0.0003808946080456123
6.968507840481048e-05
0.0004146189334707961
6.977319319511079e-05
0.0004513657242007236
6.985302599260966e-05
0.0004913563253258157
6.992933671647457e-05
0.0005348890280970805
6.999131996655573e-05
0.0005822820038617422
7.002908837230737e-05
0.0006338728836487692
7.00321258227453e-05
0.0006900334315975026
6.998742987366799e-05
0.0007511680735264
6.987956092545006e-05
0.0008177167448217103
6.969041595223443e-05
0.0008901585344188885
6.939930318729012e-05
0.0009690148258014462
6.898262562631308e-05
0.001054852970981443
6.841371046404171e-05
0.001148290480246169
6.766276683343673e-05
0.001249999430028145
6.669686919019772e-05
0.001360711265898181
6.547998791869513e-05
0.001481222077436172
6.397324097001222e-05
0.001612398389457068
6.213375660877578e-05
0.001755183099742855
5.991042399338583e-05
0.001910603395738271
5.72557412579287e-05
0.002079777184371224
5.412183406704089e-05
0.002263921562726371
5.046026257110759e-05
0.002464362125390951
4.62115668091602e-05
0.002682558041504988
4.129548601438811e-05
0.002920097640115913
3.567578574348734e-05
0.00317867291760069
2.939100492567918e-05
0.003460183127026984
2.240500698078013e-05
0.003766666774195984
1.468898687627575e-05
0.004100357229622342
6.21901001380951e-06
0.004463700411364702
-3.021232245166673e-06
0.004859373854110288
-1.302998278992192e-05
0.005290309987088195
-2.375695922012732e-05
0.005759726618078853
-3.507182218970222e-05
0.0062711827805002
-4.60534704838552e-05
0.006827413162157922
0.007305702510801378
-6.867981884814289e-09
3.421886054407285e-08
-2.766970402383393e-08
1.036435670016166e-07
-6.299405739102085e-08
1.76034574261857e-07
-1.137619830140777e-07
2.532852194004376e-07
-1.809903757500626e-07
3.368403615950957e-07
-2.652266815202359e-07
4.270076816331139e-07
-3.657357855208426e-07
5.224484640808651e-07
-4.800490056518815e-07
6.209571644673978e-07
-6.043757581434234e-07
7.212879249958812e-07
-7.346198801754607e-07
8.244375911008633e-07
-8.668429159222737e-07
9.326548512839077e-07
-9.96992908890793e-07
1.047879571748446e-06
-1.120639901333014e-06
1.171675354764087e-06
-1.232885827972969e-06
1.305595985233046e-06
-1.328348336986182e-06
1.451238616149956e-06
-1.401252921005263e-06
1.610260661492633e-06
-1.445686238869544e-06
1.784395845209122e-06
-1.45600688229887e-06
1.975472811227922e-06
-1.427304120301535e-06
2.185436424999946e-06
-1.355772957143135e-06
2.41637332341805e-06
-1.238929949693219e-06
2.670543540930113e-06
-1.075586807011172e-06
2.95040748914861e-06
-8.654977039024959e-07
3.258642189003112e-06
-6.087663785044263e-07
3.598159399764038e-06
-3.053299791732671e-07
3.972144039334987e-06
4.525600230222065e-08
4.384096839928674e-06
4.438042335617031e-07
4.837885445282608e-06
8.915156368987875e-07
5.337742948585916e-06
1.390026850084496e-06
5.888265584487146e-06
1.941392702193514e-06
6.494481056823838e-06
2.548049441416156e-06
7.161910485746474e-06
3.212788061372256e-06
7.896616837758184e-06
3.938737118277934e-06
8.705257776545366e-06
4.729352697629971e-06
9.595143406583489e-06
5.588413393820429e-06
1.057429948885267e-05
6.519961912918891e-06
1.165159313306439e-05
7.528213144936179e-06
1.283684358150344e-05
8.617513817951015e-06
1.414085356112121e-05
9.792324472545328e-06
1.557547744257565e-05
1.105720866722218e-05
1.715372789909235e-05
1.241680209952766e-05
1.888989234257591e-05
1.38757707267977e-05
2.079965932550549e-05
1.543875660390925e-05
2.290025519640066e-05
1.711030975781682e-05
2.521059156156803e-05
1.889480276237933e-05
2.77514251765804e-05
2.079632180591347e-05
3.054553284279791e-05
2.281852526038538e-05
3.361790401061959e-05
2.496445842519785e-05
3.699595436821542e-05
2.723631181949663e-05
4.070976550041317e-05
2.963511265297352e-05
4.479235662194634e-05
3.216129736550423e-05
4.927999046592376e-05
3.481526036720552e-05
5.421249836382688e-05
3.759679648799995e-05
5.963360275128164e-05
4.050453652587965e-05
6.559123068657801e-05
4.353513159301701e-05
7.213780010212746e-05
4.668220552314966e-05
7.933039864023657e-05
4.993520672302808e-05
8.723079878450691e-05
5.327831577676615e-05
9.590535621594149e-05
5.66895220300644e-05
0.0001054250360418411
6.01406422509294e-05
0.0001158658942885457
6.360080680706163e-05
0.0001273102733275591
6.704297969849704e-05
0.0001398487992896655
7.044370644935875e-05
0.000153581276829571
7.37782419028907e-05
0.0001686143868739284
7.701971332105477e-05
0.0001850573696480929
8.013466950243873e-05
0.0002030196969608041
8.306639508153221e-05
0.0002226240652510075
8.573065983126846e-05
0.0002440163373880149
8.801379749162761e-05
0.0002673339211876782
8.97396837362776e-05
0.0002926979363644611
9.072462933191489e-05
0.0003201935103701688
9.083204324176327e-05
0.0003498210499707828
9.014539010902081e-05
0.0003815812611782721
8.914858531484653e-05
0.0004156157382649251
8.811048279708131e-05
0.000452403826718368
8.703088325546627e-05
0.0004924359248673633
8.585282207048268e-05
0.0005360670892819885
8.458260972536247e-05
0.000583552216206812
8.322109654239658e-05
0.0006352343968316626
8.175989591486846e-05
0.0006914946322250006
8.019287048594451e-05
0.0007527350989552482
7.851519803486679e-05
0.0008193944172727543
7.67231119676816e-05
0.0008919506204859974
7.481110214971063e-05
0.000970926835619386
7.277332826555321e-05
0.001056890744865519
7.060368785678729e-05
0.001150460120654916
6.829517401342586e-05
0.00125230794387143
6.583964987751898e-05
0.001363166790034059
6.322756038676267e-05
0.001483834166926853
6.044760140127939e-05
0.001615178348442525
5.748671898154947e-05
0.001758143982162518
5.430953901708677e-05
0.001913780575702713
5.089056376086833e-05
0.002083196159627378
4.720260357824014e-05
0.002267609522908969
4.321430962201822e-05
0.002468350419347115
3.890431396009813e-05
0.00268686803716687
3.426360641217296e-05
0.002924738347663788
2.925696826290426e-05
0.003183679555749926
2.386061562112456e-05
0.003465579479668724
1.802441942605794e-05
0.003772502970391015
1.169195337126547e-05
0.004106689695677105
4.799328762112928e-06
0.004470593035973819
-2.728505437203146e-06
0.004866901688309583
-1.09831735057496e-05
0.005298564655156718
-2.008779764735214e-05
0.005768831242220446
-3.028228896653029e-05
0.006281377271819366
-4.038379378246678e-05
0.006837514666973849
0.007265318717018909
1.213251353615568e-09
3.300560929551816e-08
4.888430433804642e-09
9.996838803949127e-08
1.113051687471806e-08
1.69792487925357e-07
2.010433507113519e-08
2.443114012998534e-07
3.200032067519512e-08
3.249443760731378e-07
4.697566739276263e-08
4.120323349808491e-07
6.511103560058562e-08
5.043130959211377e-07
8.642991896762232e-08
5.996382811370083e-07
1.109530449251162e-07
6.967647990634492e-07
1.387454693329766e-07
7.966451667138389e-07
1.699499580633433e-07
9.014503625665068e-07
2.047913607043427e-07
1.013038169116111e-06
2.435700306586044e-07
1.132896684815911e-06
2.86662361169022e-07
1.262503654726476e-06
3.345231992959832e-07
1.403377778025236e-06
3.876889933258523e-07
1.557094867465101e-06
4.467810792616798e-07
1.725303759273007e-06
5.125085523913901e-07
1.909745338097905e-06
5.856702863396241e-07
2.112274691051311e-06
6.6715591720024e-07
2.334887692556599e-06
7.579557667625463e-07
2.579743691367507e-06
8.591757242907931e-07
2.849187531619785e-06
9.720441348557677e-07
3.145773778436715e-06
1.097894025560816e-06
3.472309509057588e-06
1.238124042487175e-06
3.831914022407979e-06
1.394162879250911e-06
4.228058003163346e-06
1.567531493917386e-06
4.66451683061439e-06
1.759922363218869e-06
5.145352079283035e-06
1.973212692473513e-06
5.674975255230757e-06
2.209482616446444e-06
6.258211132849293e-06
2.471037343760161e-06
6.900355758431098e-06
2.760431546368275e-06
7.607222635148635e-06
3.080496021644201e-06
8.385193301267647e-06
3.434366649332275e-06
9.241272778894297e-06
3.825515644231625e-06
1.018315049395147e-05
4.257790551599914e-06
1.121931822569498e-05
4.735458982655791e-06
1.235917515044587e-05
5.263250895346422e-06
1.361306164842913e-05
5.846401346423639e-06
1.499232699149685e-05
6.49069659103669e-06
1.650943265447736e-05
7.202523304130733e-06
1.817806562947983e-05
7.988920266635567e-06
2.001326236299971e-05
8.857631045547987e-06
2.203154441748588e-05
9.816993536852996e-06
2.425122907026141e-05
1.087563613006685e-05
2.669278258336333e-05
1.204231305654449e-05
2.937885591631968e-05
1.332589510033575e-05
3.233432196682548e-05
1.473532059691029e-05
3.558652887163894e-05
1.627950271363255e-05
3.916558338368811e-05
1.79671959881852e-05
4.310466334739275e-05
1.980683335585518e-05
4.744035309824986e-05
2.180635749950676e-05
5.221297422017358e-05
2.39731169325567e-05
5.746684331822757e-05
2.631381303980377e-05
6.325053457932943e-05
2.883425704349154e-05
6.961735609843409e-05
3.153883467104657e-05
7.662582101267896e-05
3.442954709445168e-05
8.434008636109741e-05
3.750456529741939e-05
9.283033801297192e-05
4.075648734643616e-05
0.0001021731139928174
4.417080266666452e-05
0.0001124515789683155
4.772529961792974e-05
0.0001237557763762862
5.139124913069337e-05
0.0001361828497768974
5.513541227278531e-05
0.0001498371136874732
5.89201440120111e-05
0.0001648296551346973
6.270018669777305e-05
0.0001812773269623196
6.641772873352914e-05
0.0001993021549250396
7.000850775978418e-05
0.0002190332862247401
7.342225284213571e-05
0.0002406025923056499
7.661669394808002e-05
0.0002641394800817135
7.952293286840728e-05
0.0002897916974441136
8.200628075935863e-05
0.0003177101624791834
8.38181154007217e-05
0.0003480092153293648
8.469989819039954e-05
0.0003806994783885309
8.45946243099135e-05
0.0004157210121453205
8.394273073232062e-05
0.0004530557202958697
8.312377236490083e-05
0.0004932548832346891
8.23026414670971e-05
0.0005368882201797071
8.140158012942196e-05
0.0005844532775444297
8.039099647029077e-05
0.0006362449804907418
7.928162286554933e-05
0.0006926040058296679
7.806878814829539e-05
0.0007539479336724485
7.674210211562361e-05
0.0008207211033053806
7.528501949612547e-05
0.0008934077031054375
7.368751648250912e-05
0.0009725243386329507
7.193812986288594e-05
0.001058640131485103
7.002345124374001e-05
0.001152374799274026
6.793005408402163e-05
0.001254401341031103
6.56441803368479e-05
0.001365452663781198
6.315168655235493e-05
0.001486326660711315
6.043722351888339e-05
0.001617892811475959
5.748345785824952e-05
0.001761097747823108
5.428954901722449e-05
0.001916974484543701
5.084229804115835e-05
0.002086643410603411
4.712684687743005e-05
0.002271324974072666
4.312736249821403e-05
0.0024723499037263
3.882619970575906e-05
0.002691169199959287
3.420341241368862e-05
0.00292936113495583
2.92357855245615e-05
0.003188647182639029
2.389633883507032e-05
0.003470918926358186
1.815354394803552e-05
0.003778245765278027
1.196909969473391e-05
0.004112874139930381
5.297462606530642e-06
0.004477264673061998
-1.914362646099161e-06
0.00487411351356219
-9.737336152163822e-06
0.005306387628662763
-1.821951605117215e-05
0.005777313422119435
-2.752532653951192e-05
0.00629068308230769
-3.600432403299562e-05
0.00684599366446732
0.007229314392985913
1.172985930287384e-09
3.183262332307601e-08
4.725416773395583e-09
9.64159571419737e-08
1.075640532323442e-08
1.637614993238997e-07
1.941544277997616e-08
2.356523637832534e-07
3.084733762888247e-08
3.13512481171544e-07
4.507863755667026e-08
3.978010350015923e-07
6.191444772361008e-08
4.874772857115903e-07
8.100840626346719e-08
5.805443225612479e-07
1.020789050590765e-07
6.756943002401986e-07
1.251467354892978e-07
7.735773362580553e-07
1.503557098477513e-07
8.762413881919618e-07
1.778248731252622e-07
9.855690058213497e-07
2.077166781844215e-07
1.103004879746297e-06
2.402394074979829e-07
1.22998092540185e-06
2.75642911314327e-07
1.367974274200815e-06
3.142151950535545e-07
1.518522583718703e-06
3.56280898241251e-07
1.683238056079129e-06
4.022020794113099e-07
1.863824156922204e-06
4.523824556079213e-07
2.062094314851437e-06
5.072778723883046e-07
2.279992275770251e-06
5.674063940403209e-07
2.519615169713542e-06
6.333515468599555e-07
2.783242378794887e-06
7.057490210466661e-07
3.073376304247158e-06
7.85252842494279e-07
3.392805687606325e-06
8.724577713954127e-07
3.744709093503977e-06
9.679522655982749e-07
4.132563508956873e-06
1.072449227825688e-06
4.560019868383986e-06
1.186783392928257e-06
5.031017914176679e-06
1.311876375372232e-06
5.549882272784706e-06
1.448726889986744e-06
6.121360618230874e-06
1.598417278468197e-06
6.750665369947219e-06
1.762120609420816e-06
7.443519304193078e-06
1.941108432379868e-06
8.206205478306031e-06
2.13675932330284e-06
9.045621887968243e-06
2.350568463349817e-06
9.969341353901675e-06
2.584209567373853e-06
1.098567712166777e-05
2.83962998741287e-06
1.210375473040427e-05
3.119100918966494e-06
1.333359071687199e-05
3.42524905146696e-06
1.468617885899336e-05
3.761096974209213e-06
1.617358473173198e-05
4.130113200730555e-06
1.780904940295521e-05
4.536272303372839e-06
1.960710326035426e-05
4.984125395926989e-06
2.158369132492885e-05
5.478895769352036e-06
2.375645869683291e-05
6.026603915629262e-06
2.614507443708317e-05
6.634196366674754e-06
2.877126346527058e-05
7.309682865623509e-06
3.165883546787328e-05
8.062306526937522e-06
3.483390521032101e-05
8.902706444438892e-06
3.832518346618328e-05
9.842415349949279e-06
4.216495444187804e-05
1.089337353588027e-05
4.638939491231469e-05
1.206819738227162e-05
5.10381503737775e-05
1.33803165846343e-05
5.615472411586008e-05
1.484393057585188e-05
6.178692058810727e-05
1.647392744747703e-05
6.798735922680344e-05
1.828568600966694e-05
7.481406245048281e-05
2.02946534089181e-05
8.233111896184136e-05
2.251557141763375e-05
9.06094200042488e-05
2.496123670897028e-05
9.972744870147451e-05
2.764076790381845e-05
0.0001097720477734591
3.05575925841861e-05
0.000120838951695911
3.370784260353098e-05
0.0001330325997575436
3.707908968173231e-05
0.0001464658666092632
4.064821822911227e-05
0.0001612605265873048
4.43782677123863e-05
0.0001775472774790347
4.821566714755447e-05
0.0001954647554898559
5.20921609588082e-05
0.000215156792413473
5.592664864080209e-05
0.0002367681046236347
5.962520024652386e-05
0.0002604409284759728
6.310124074727961e-05
0.0002863156569433308
6.628897102501598e-05
0.0003145224322014184
6.908917192287473e-05
0.0003452090144314678
7.127941445437968e-05
0.000378509235856973
7.253220041285538e-05
0.0004144682261867623
7.264885174003554e-05
0.0004529390689686125
7.206447485697929e-05
0.0004938392601176568
7.128335464712334e-05
0.0005376693403894568
7.048518377025208e-05
0.0005852514484211985
6.963880629907734e-05
0.0006370913579618473
6.871343763381117e-05
0.0006935293744948533
6.770352875098947e-05
0.0007549578425551955
6.660175459997821e-05
0.0008218228774563327
6.540405926378545e-05
0.0008946053984415603
6.409940990385848e-05
0.0009738289879928283
6.267727511612943e-05
0.001060062266272774
6.112701173029512e-05
0.001153925062659813
5.943636419075164e-05
0.001256091988570585
5.759181124471023e-05
0.00136729721672721
5.557859510992873e-05
0.001488339876846049
5.338053703213763e-05
0.001620090869553718
5.097990496085108e-05
0.001763498379894344
4.836154803141472e-05
0.001919592841473111
4.55059996246307e-05
0.002089498959010159
4.239197980293962e-05
0.002274438993894324
3.899653477828281e-05
0.00247574534875092
3.529687305257063e-05
0.002694868861684967
3.126751286003672e-05
0.002933390495148331
2.688114570512516e-05
0.003193033549793905
2.211040324780346e-05
0.003475689668815478
1.692569802706629e-05
0.003783430470498726
1.129587947012432e-05
0.004118503958487297
5.182754855534866e-06
0.004483377797676553
-1.463310600138594e-06
0.004880759579017838
-8.669686719125835e-06
0.005313594004781727
-1.645292188559401e-05
0.005785096657285891
-2.488166636777175e-05
0.006299111826789855
-3.22569078270011e-05
0.006853368905926537
0.00719705748515891
1.000170692722723e-09
3.083245252947132e-08
4.029328060838456e-09
9.338679966137766e-08
9.171949261172311e-09
1.58618878022275e-07
1.655449164598469e-08
2.282698213053181e-07
2.629405876212055e-08
3.03772913979297e-07
3.838775017474941e-08
3.857073435180357e-07
5.260344491025041e-08
4.732615909228267e-07
6.854504180377058e-08
5.646027256209546e-07
8.587907959427579e-08
6.583602624212785e-07
1.045876670133014e-07
7.548687488098775e-07
1.247745109111961e-07
8.560545442747382e-07
1.465058851520578e-07
9.638376315619445e-07
1.698834532126013e-07
1.079627311672932e-06
1.950460711765116e-07
1.204818307424849e-06
2.221650208460492e-07
1.340855324522922e-06
2.514404339307361e-07
1.489247170624292e-06
2.830997044880548e-07
1.651578785515514e-06
3.173976570319603e-07
1.829526204370176e-06
3.546180743968227e-07
2.024873897482098e-06
3.950760318851015e-07
2.239534318274754e-06
4.391200062431246e-07
2.475571195351576e-06
4.871316741342305e-07
2.735230710897079e-06
5.395192959464955e-07
3.020988682431228e-06
5.966970413119042e-07
3.335627942234519e-06
6.59046188938016e-07
3.682359945874347e-06
7.269938971793175e-07
4.064615800709829e-06
8.010664414791772e-07
4.485947324081251e-06
8.818334253862386e-07
4.950250930264111e-06
9.699114525850851e-07
5.461804245583297e-06
1.065968069306193e-06
6.025304001504388e-06
1.17072600470054e-06
6.645907434549997e-06
1.284967744894987e-06
7.329277563993219e-06
1.409540482351353e-06
8.081632740847308e-06
1.545361488722773e-06
8.909800881591133e-06
1.693423968164196e-06
9.821278874457689e-06
1.854803456297708e-06
1.082429763352903e-05
2.030664807977143e-06
1.192789337872245e-05
2.222269799207995e-06
1.314198572563594e-05
2.430985409713881e-06
1.447746324848591e-05
2.658292893472289e-06
1.59462772479671e-05
2.905797781023434e-06
1.756154451540222e-05
3.175241065139934e-06
1.933765997623266e-05
3.468512142455223e-06
2.129042024761174e-05
3.787811664874545e-06
2.34371591744078e-05
4.135989750219925e-06
2.579689635173587e-05
4.516753621922208e-06
2.839049959356283e-05
4.934726115923808e-06
3.12408629738697e-05
5.395528906185662e-06
3.437310242005312e-05
5.905896409230161e-06
3.781481596313677e-05
6.473876547448073e-06
4.159697430365379e-05
7.109069228338124e-06
4.575420223142291e-05
7.822848247075581e-06
5.032437135503333e-05
8.627656585575979e-06
5.534991577735764e-05
9.536144225448851e-06
6.087843294822706e-05
1.056140322242283e-05
6.696210022982735e-05
1.171735803703014e-05
7.365810763586809e-05
1.301916481095841e-05
8.102931218791124e-05
1.448357504820125e-05
8.914500976699788e-05
1.612921305303899e-05
9.808181069663389e-05
1.79766622949138e-05
0.000107924598531576
2.004806396445923e-05
0.0001187675500263628
2.236545727783428e-05
0.000130715206444161
2.494771959273763e-05
0.0001438836042943553
2.780681486000577e-05
0.0001584014313200292
3.094317367863372e-05
0.0001744109186604026
3.434043645111463e-05
0.0001920674927173677
3.796141524516528e-05
0.0002115358136194163
4.174232630096514e-05
0.0002329871935678255
4.558911086447302e-05
0.0002565941439124584
4.938341066396361e-05
0.0002825213571438263
5.29897899559052e-05
0.0003109160529094654
5.629228532912366e-05
0.0003419065190582349
5.920350282892662e-05
0.0003755980183571502
6.156240414888445e-05
0.0004121093248667861
6.296319368864169e-05
0.0004515382794288168
6.316703995813965e-05
0.0004936354138481223
6.258469618209851e-05
0.0005382516841654606
6.185905068111807e-05
0.0005859770939221414
6.108249837839413e-05
0.0006378679102645393
6.024126294745681e-05
0.0006943706099257604
5.932531675399329e-05
0.0007558737887486275
5.832826448943025e-05
0.000822819929720865
5.724266916771267e-05
0.0008956909937632563
5.606177730206153e-05
0.0009750098798584487
5.477687730505615e-05
0.001061347166269754
5.337883363443735e-05
0.001155323106330412
5.1857773953047e-05
0.001257613048251954
5.020285022581399e-05
0.001368952140454424
4.840220399912633e-05
0.001490140523072716
4.644356037257389e-05
0.001622049513180248
4.431488434190686e-05
0.001765627055924998
4.200174337138587e-05
0.001921905982443617
3.948747048656505e-05
0.002092013231894965
3.675359477922532e-05
0.002277172869601644
3.377994147920305e-05
0.002478719002050925
3.054301289351924e-05
0.00269810579027064
2.701778731817003e-05
0.002936915720723663
2.317714377740793e-05
0.003196874193334661
1.899116135534239e-05
0.003479875651237528
1.442841318150914e-05
0.003787993218672551
9.454269657183814e-06
0.004123478102011606
4.030278143418612e-06
0.004488801789190304
-1.859020005947436e-06
0.004886648877167187
-8.289966373975487e-06
0.005320024951149741
-1.528261242885656e-05
0.005792089303340756
-2.29133410125541e-05
0.006306742555373541
-2.911879171008351e-05
0.006859574356624057
0.007167938693448826
7.911619236033628e-10
3.004129055798995e-08
3.187434034478347e-09
9.099052749213058e-08
7.255951257037743e-09
1.545503607468889e-07
1.309831990741004e-08
2.224274526027802e-07
2.081345785819836e-08
2.960577759800442e-07
3.041524375793728e-08
3.761055575744556e-07
4.174278143964957e-08
4.619340532057553e-07
5.449003229098775e-08
5.518554747381361e-07
6.837561995902789e-08
6.444746747317045e-07
8.336571510283323e-08
7.398786536442765e-07
9.952979558223661e-08
8.398904637817254e-07
1.169099978573211e-07
9.464574292712192e-07
1.355790167923727e-07
1.060958292728053e-06
1.556405175755224e-07
1.18475680663036e-06
1.772246745453056e-07
1.319271167545795e-06
2.004847524514253e-07
1.465987092709055e-06
2.25595262381588e-07
1.626468275579302e-06
2.527514525348481e-07
1.802370014209801e-06
2.821697949436247e-07
1.995455555068434e-06
3.140890725691776e-07
2.207615040642313e-06
3.487714618803662e-07
2.440888806037076e-06