/*--------------------------------*- C++ -*----------------------------------*\
| =========                 |                                                 |
| \\      /  F ield         | OpenFOAM: The Open Source CFD Toolbox           |
|  \\    /   O peration     | Version:  v1812                                 |
|   \\  /    A nd           | Web:      www.OpenFOAM.com                      |
|    \\/     M anipulation  |                                                 |
\*---------------------------------------------------------------------------*/
FoamFile
{
    version     2.0;
    format      ascii;
    class       volVectorField;
    location    "0.00000125";
    object      U;
}
// * * * * * * * * * * * * * * * * * * * * * * * * * * * * * * * * * * * * * //

dimensions      [0 1 -1 0 0 0 0];


internalField   nonuniform List<vector> 
44064
(
(0.0292178551998964 2.061044525588985e-05 9.23787786228671e-20)
(0.08726306516772288 6.13083448115846e-05 2.569836140096985e-19)
(0.1453456512256054 0.000100268779441143 4.450193717724943e-19)
(0.2036120624438212 0.0001378766439960456 6.368173418312848e-19)
(0.2613668325444973 0.0001745206018509661 8.51770559936417e-19)
(0.3164822607632374 0.0002104438787388983 1.081102010596287e-18)
(0.3660597112144856 0.0002457290912109079 1.290571396659986e-18)
(0.4084283257738942 0.0002801613968660545 1.457623231227114e-18)
(0.4445088615030504 0.0003142662522919904 1.606402593328144e-18)
(0.4757937873472244 0.0003485541397441119 1.694724836589547e-18)
(0.5031689047043012 0.0003829569392883505 1.777773891582868e-18)
(0.5273316962803953 0.0004176125158066629 1.85403344670458e-18)
(0.5488710886563972 0.0004526978702820441 1.923894594195256e-18)
(0.5682745989940273 0.0004883713825501146 1.993318433291943e-18)
(0.5859382285220586 0.0005247850248839852 2.03412503401103e-18)
(0.6021803687657035 0.0005620924453292012 2.077173364034593e-18)
(0.6172560879059394 0.0006004487597645676 2.117917325145414e-18)
(0.6313698406810269 0.0006400085845956238 2.156777879880781e-18)
(0.644686004419771 0.0006809246409249062 2.194151101087926e-18)
(0.6573373008122849 0.0007233471782287798 2.209567041573222e-18)
(0.6694314046406057 0.0007674238837028843 2.224661410304107e-18)
(0.68105608725791 0.0008133000325206872 2.220141467176977e-18)
(0.6922832114333883 0.000861118678341713 2.19687163996739e-18)
(0.7031718392492087 0.0009110207497065734 2.174166534069324e-18)
(0.7137706597692374 0.0009631450313604079 2.13364359242997e-18)
(0.7241198954785661 0.001017628016819243 2.093849264658062e-18)
(0.7342528080254112 0.001074603647242001 2.036755862896558e-18)
(0.7441968943571546 0.001134202908920057 1.980423245401668e-18)
(0.7539748419516724 0.001196553276325568 1.925043957312811e-18)
(0.7636052951930236 0.001261777990972599 1.870754882199586e-18)
(0.7731034725185277 0.001329995164453682 1.817723245124301e-18)
(0.7824816646884695 0.001401316693180236 1.766252192544764e-18)
(0.7917496374056501 0.001475846972430932 1.679516132058178e-18)
(0.8009149556560605 0.001553681397936692 1.593429469706153e-18)
(0.8099832418187116 0.001634904642973249 1.507973667126703e-18)
(0.8189583741538291 0.001719588695037204 1.422757844920789e-18)
(0.8278426265209947 0.001807790638860562 1.337158742725358e-18)
(0.8366367447453059 0.001899550252743007 1.250653957480349e-18)
(0.8453399522714606 0.001994887681782513 1.080422034990628e-18)
(0.8539498826431239 0.002093801053001092 9.02917437421608e-19)
(0.8624624574378185 0.00219625900842515 7.175641591685124e-19)
(0.8708717764217544 0.002302193229065147 4.361980362748204e-19)
(0.8791701056741202 0.002411489438146432 1.441445482551262e-19)
(0.8873480345918646 0.002523981648752325 -6.236410346610082e-20)
(0.8953948995037592 0.002639449204276571 -7.832327720938288e-20)
(0.9032995783595174 0.002757611609045051 -2.926152864264077e-19)
(0.9110516162858749 0.002878121282910042 -3.209691524968339e-19)
(0.9186422171858548 0.00300055502095208 -3.611627676818955e-19)
(0.9260638236158175 0.003124406081687214 -4.115705341678493e-19)
(0.9333058924162756 0.003249081934502323 -4.654293760134524e-19)
(0.9403437623516278 0.00337392182121071 -4.934895076059579e-19)
(0.9471194917483665 0.003498261837695319 -4.294886405485633e-19)
(0.9535233000036272 0.00362152216913655 -2.49707785660099e-19)
(0.9594048362428572 0.003742980193524201 4.060134407406136e-20)
(0.9646561347432711 0.003860786610774173 3.692465582326203e-19)
(0.9693704739198118 0.00397419924893993 1.297098101941713e-18)
(0.9737786931183969 0.004084528006635054 2.345917526127381e-18)
(0.9779948112578531 0.004190337123491026 3.578140644079018e-18)
(0.9820023640711544 0.004288817413796647 5.044704792294916e-18)
(0.9857808139948664 0.004379153856176469 6.564164073919898e-18)
(0.9892998820406602 0.004460061530531116 7.774029644247964e-18)
(0.9925093303002157 0.004530920199643188 5.657876808761243e-18)
(0.9953497895856496 0.004591299282310452 4.263118401066307e-18)
(0.9977656253286107 0.004635978363971833 2.779583676864692e-18)
(0.9996827387329862 0.00464791945514051 1.000479851191612e-18)
(1.000999431563237 0.004692950392514055 -1.692687045354037e-18)
(1.002013831717771 0.004714452222510265 8.324374884185195e-18)
(1.002784248431594 0.004679160983613337 6.755950152708501e-18)
(1.003277172358196 0.004683669554653076 2.447403457048859e-18)
(1.003134114780393 0.004603413750442169 1.742171957196555e-18)
(1.002693602732038 0.004518426761249791 -2.374540455797503e-17)
(1.002503498159196 0.004463347550673647 -7.175831980041155e-18)
(1.002705140807478 0.004488482346385282 -2.505933918126619e-18)
(1.002633739811466 0.004385220958930258 -2.561263747267523e-19)
(1.002481452207884 0.004288487333168838 -1.634246830145191e-18)
(1.002422093803253 0.004235327859076172 4.68810180245011e-19)
(1.002372713479053 0.004154982878332849 -8.332430076869404e-19)
(1.002314582216234 0.004065036560626641 3.236700802097213e-17)
(1.002254324811454 0.003972984182731355 6.11114270509356e-18)
(1.002190643609447 0.003874032601225881 -8.757087957838097e-19)
(1.002122675871277 0.003768247721246977 5.185485582749414e-17)
(1.002050476992902 0.003655794445461632 1.001361972022192e-17)
(1.001974408707956 0.003536876826235123 3.598685784024143e-18)
(1.001893420434125 0.003409825378014797 1.91302091750068e-17)
(1.001814616495384 0.003277393820889633 -6.203393979293459e-18)
(1.001736556146015 0.003138349061071796 6.056935263486145e-17)
(1.001655566752307 0.002992199685950829 5.446978064124518e-17)
(1.001571590603529 0.002839828396198598 7.720253794354207e-17)
(1.001484788616741 0.00268133805431023 6.316617221757776e-17)
(1.001395998014297 0.002517366992426487 1.107683766396164e-16)
(1.001305084693821 0.002348132093620957 1.080370184720259e-16)
(1.001212382017741 0.002174211779096743 1.179279938333774e-16)
(1.00111836265956 0.001996041568473525 1.131053795557971e-16)
(1.001023662530413 0.001817578868675429 1.005406035685287e-16)
(1.000907153079369 0.001629550658725739 1.063962766833844e-16)
(1.00079197594649 0.001443653698094006 8.681535790883887e-17)
(1.000675216527529 0.001253826607638102 8.542362785556505e-17)
(1.000566855535056 0.001056859320373135 6.474614853085313e-17)
(1.000524835185879 0.0008781728388529586 6.059985850020095e-17)
(1.000488973747631 0.0006835530796092665 1.910775292619679e-17)
(1.000460647482813 0.000483132114957241 3.952666282133162e-17)
(1.000441498201593 0.0002744902444299206 2.570918790384524e-17)
(1.000433701823877 5.321115173531207e-05 -8.332483732099172e-18)
(1.000440270094587 -0.0001872479209971431 4.118984705379224e-17)
(1.000465676511264 -0.0004592500009221885 1.707394154209343e-17)
(1.000519189393878 -0.0007711677517196614 2.888092801180154e-17)
(1.000586721667806 -0.000946828109629413 3.564339665262318e-17)
(0.9952442080540089 -0.001326393947765737 -2.265150867824493e-17)
(0.01577758500828412 2.547844219240363e-08 -2.901336533777332e-20)
(0.0474438972498215 3.986256577345974e-07 -8.719089884633148e-20)
(0.07944703797893628 1.155038224994479e-06 -1.699570821969081e-19)
(0.112002229354602 2.313820954914179e-06 -2.78617079213482e-19)
(0.1452865024223639 3.873964848069411e-06 -3.899112828985211e-19)
(0.179387621668 5.81840570643432e-06 -5.043708616927917e-19)
(0.2142458786892704 8.09393615027806e-06 -6.050250711470138e-19)
(0.2496294606379634 1.062225273648976e-05 -7.160337947616523e-19)
(0.2851726502083325 1.335974998798943e-05 -8.110394618126999e-19)
(0.3204503716664155 1.629381693862993e-05 -8.803092830895778e-19)
(0.3550336364497758 1.944664554957915e-05 -9.166360779261498e-19)
(0.3885093692770388 2.285127125752677e-05 -9.226877101075566e-19)
(0.4204938785526471 2.652685266545427e-05 -9.23578243006153e-19)
(0.4506671805224571 3.049630884161001e-05 -9.265675014298218e-19)
(0.4788198832226315 3.478629269636966e-05 -8.889631270647625e-19)
(0.5048803156623601 3.94302533992361e-05 -8.565303833181658e-19)
(0.5288989812340795 4.445829986479199e-05 -8.293118427732565e-19)
(0.5510100729985034 4.990689910639746e-05 -7.736602491735718e-19)
(0.5713889111207395 5.581484182064103e-05 -7.254014970470083e-19)
(0.5902209209916915 6.222355646618493e-05 -6.55320898060395e-19)
(0.6076841621717542 6.91774845017648e-05 -5.667984642905125e-19)
(0.6239423090705184 7.672486892438345e-05 -4.376659533464399e-19)
(0.6391416095801564 8.491635558170873e-05 -3.194592040558841e-19)
(0.6534113647909795 9.380754436700097e-05 -1.669787768257078e-19)
(0.6668652020904539 0.0001034591574253878 -2.484470402656725e-20)
(0.6796019604901258 0.0001139356292630815 1.083749838407019e-19)
(0.6917073317379162 0.0001253069513553764 2.340888680703506e-19)
(0.7032554556424893 0.0001376489347630873 3.527646806177818e-19)
(0.7143104217489713 0.0001510435445365092 4.629318553320695e-19)
(0.7249276426043281 0.0001655793386345813 5.984430968707261e-19)
(0.7351550750256856 0.0001813519274249729 6.618897721835982e-19)
(0.7450342832697294 0.0001984644286744129 7.223328100909505e-19)
(0.7546013502661215 0.0002170279193161012 7.804913743252361e-19)
(0.7638876489571257 0.0002371618718100186 8.36858025344974e-19)
(0.7729204901966396 0.0002589945127294841 8.918216901369585e-19)
(0.7817236660631571 0.0002826630252629743 9.457405697632282e-19)
(0.7903179032640388 0.0003083140103655002 1.054930750823422e-18)
(0.7987212437728822 0.0003361059245844617 1.163225326376559e-18)
(0.8069493657717329 0.0003662127344661663 1.161713457910835e-18)
(0.8150158606873567 0.0003987924112433976 1.160540447075604e-18)
(0.8229458659813402 0.000434017160683309 1.230265074654773e-18)
(0.8307785058225573 0.0004721056362473953 1.269261042424402e-18)
(0.8385472291036595 0.0005132621334085389 1.273449577684109e-18)
(0.8462731789858473 0.0005576804698758294 1.282254865041052e-18)
(0.8539694841128427 0.0006055658155258868 1.297855651023626e-18)
(0.8616442058568189 0.0006571239447617635 1.093610017644827e-18)
(0.8693022135367342 0.0007125547928281802 8.115999311622502e-19)
(0.8769461199796731 0.0007720488339867121 4.584138915350296e-19)
(0.8845763007727053 0.0008357837455971133 1.408618387081091e-20)
(0.8921899841366204 0.0009039193848932268 -4.461791710419934e-19)
(0.8997795336011599 0.0009765855039546517 -6.733630639533763e-19)
(0.9073304716728934 0.001053849044687519 -6.50883241836909e-19)
(0.9148204979465187 0.00113564284789469 -6.401715685208461e-19)
(0.9222212719426094 0.001221657542695421 -9.397788108841028e-19)
(0.9295038860659304 0.001311275594161482 -1.282306856745015e-18)
(0.9366456418093573 0.001403740760505649 -1.024304526297576e-18)
(0.9436315237045649 0.001498330803339285 -8.12777625315876e-19)
(0.9504458708982696 0.001594396590436343 4.083702593073419e-20)
(0.9570572993562703 0.001691383585866548 7.869647118170521e-19)
(0.9634046314625183 0.001788733732133598 1.289247404557368e-18)
(0.9694004382981587 0.001885701241915165 1.676890815121056e-18)
(0.9749850896586285 0.001979849592526998 8.48799524737808e-19)
(0.9802600974019487 0.002070255304580697 -1.733539311070054e-19)
(0.9853629072417579 0.002159042018405808 -2.35114817877188e-18)
(0.9902839169446161 0.002248874274023805 -2.708519012659848e-18)
(0.9949343674221741 0.002308595253195729 -4.17550732092184e-18)
(0.9990502449891507 0.002365621252709616 -5.939625439393675e-20)
(1.002448123887433 0.002422274101319703 3.167187935736304e-18)
(1.004949486835127 0.002447443541905145 8.347047634395435e-18)
(1.006451462401284 0.00252438732399222 9.709068905215094e-19)
(1.007164350031498 0.002477174716918948 -1.784818339036887e-17)
(1.006974142236737 0.002511472624218337 -1.326576413919901e-17)
(1.006249155539084 0.00248708564751418 1.596606336226159e-17)
(1.006500584384803 0.002476603502005596 1.709869097728092e-18)
(1.006557705443154 0.002477535464969797 2.376740576705129e-17)
(1.006434560035757 0.002479295909124466 -2.297000337703044e-18)
(1.006321858264224 0.002468543162121925 -7.106713999612677e-18)
(1.006218950298783 0.002461940191476134 1.589790503660775e-17)
(1.00610395634734 0.002455768403204185 3.643716962657525e-17)
(1.005981631049802 0.002447021306766966 -2.542281532862699e-18)
(1.005852957751845 0.002436607861845513 3.218747502786341e-17)
(1.00571738940109 0.002424063018881043 -1.258014032930987e-19)
(1.005574800201066 0.00240916673443728 1.732626424325753e-17)
(1.005425292369537 0.002390856540426889 4.679763950426416e-17)
(1.005259115899255 0.002368721192106987 7.740538313052787e-17)
(1.005080572276855 0.002341616697269396 1.939532691905657e-16)
(1.00489574029485 0.002309076166119748 2.684297320085341e-16)
(1.004705476095823 0.002270311668713912 3.973712438751561e-16)
(1.004510718889404 0.002224124977845963 4.499129909309354e-16)
(1.004311842072589 0.002169509595799539 5.409024494444941e-16)
(1.0041107406539 0.002105341710684735 5.999103809402282e-16)
(1.003908717729843 0.002030598621275012 6.728717522170523e-16)
(1.003707042293956 0.001942959435245284 6.720785485482302e-16)
(1.003509675804463 0.001843119425784604 5.978071063239732e-16)
(1.003343958630094 0.001728518306063451 5.690404179219868e-16)
(1.003178744315981 0.001598509204492229 4.424634930731013e-16)
(1.003014685040432 0.001452193532827711 4.290805267703514e-16)
(1.002856138697758 0.00128393764068262 3.157410230319997e-16)
(1.002722986859735 0.001093319115119064 2.618287334009911e-16)
(1.002609809170489 0.0008813621205636656 1.912753531233499e-16)
(1.00251889372728 0.0006537425656246053 2.271205155103799e-16)
(1.002455755736119 0.0004052723728736658 1.708544454808764e-16)
(1.002427568621966 0.0001352737992961134 1.621028973653808e-16)
(1.002443956261141 -0.0001552267635339184 1.955634846173012e-16)
(1.002518631842411 -0.0004645051882748919 1.900212056213622e-16)
(1.002665843159737 -0.0008269038237432929 7.395183782159495e-17)
(1.002870236795978 -0.001012433843731892 9.221116111997017e-17)
(0.9898001977660688 -0.00207294709211806 -1.1906836123302e-17)
(0.01999540220049026 -1.105266804334036e-08 5.725743087319212e-20)
(0.06012931004065393 -1.834231358557467e-07 1.700616401975868e-19)
(0.1006833575753691 -5.400210506936471e-07 2.608609617692835e-19)
(0.1418656689352077 -1.095054284260336e-06 3.535384490073572e-19)
(0.1836515311563519 -1.857689623632323e-06 4.570971862259629e-19)
(0.2255142227580493 -2.83597767553294e-06 5.629814307431025e-19)
(0.2662482224951876 -4.014420630769981e-06 6.721081271410524e-19)
(0.3042806067044094 -5.329922301604537e-06 7.743284248031172e-19)
(0.3384553926502352 -6.671901442872246e-06 8.743728772304825e-19)
(0.3685195147849926 -7.905113671997093e-06 9.227238000739849e-19)
(0.3951743807378231 -8.92032501645112e-06 9.682557053317272e-19)
(0.4191580784498718 -9.615139248017431e-06 9.940103269933804e-19)
(0.4408638519379371 -9.898477950636663e-06 1.023328392315369e-18)
(0.4606256778966817 -9.699349153517469e-06 1.05623044346571e-18)
(0.4787398673272896 -8.959504261025926e-06 1.065040943014517e-18)
(0.4954646030332909 -7.632219300508399e-06 1.075799823150249e-18)
(0.511022351151774 -5.674975393443509e-06 1.088591850361364e-18)
(0.5256009254523709 -3.051058548903241e-06 1.123589803266669e-18)
(0.5393575983288016 2.759861108012776e-07 1.162412119486242e-18)
(0.5524242050434579 4.344632237013419e-06 1.188786666515715e-18)
(0.5649108171590677 9.196375130880584e-06 1.215794814496571e-18)
(0.5769091951037378 1.487654900018496e-05 1.254036849383597e-18)
(0.5884955031481188 2.143575274041447e-05 1.286700688766091e-18)
(0.5997319560889024 2.892809850409688e-05 1.288326954876156e-18)
(0.6106690425314875 3.741000460464172e-05 1.294234633909364e-18)
(0.6213482439571533 4.69410893553222e-05 1.29392453949381e-18)
(0.6318039570381995 5.758385395962841e-05 1.287186109106038e-18)
(0.6420649143457046 6.940472460241918e-05 1.279780405291022e-18)
(0.6521552668154181 8.247613842638735e-05 1.271418865981883e-18)
(0.6620954307326625 9.687647081970325e-05 1.27344923753304e-18)
(0.6719027619696505 0.0001126901028309383 1.278449258483162e-18)
(0.681592098544769 0.0001300076401593428 1.284860640738915e-18)
(0.6911762005734504 0.0001489261768349179 1.248487691174233e-18)
(0.7006661101080577 0.0001695495742872849 1.218733359201081e-18)
(0.710071450065955 0.0001919887604068804 1.191094254231687e-18)
(0.7194006800480937 0.0002163620522957423 1.121415407036309e-18)
(0.7286613261820615 0.0002427954984708553 1.053508574042001e-18)
(0.7378602005222392 0.0002714231987650163 9.720959850978586e-19)
(0.7470036204669622 0.0003023875149709929 8.873246647884431e-19)
(0.7560976263803614 0.0003358394186403465 7.567914137758854e-19)
(0.7651481711813803 0.0003719410588782828 6.431497674627917e-19)
(0.7741612134060349 0.0004108657687941465 5.327615758316072e-19)
(0.7831426890825428 0.0004528001252158131 4.311438537112325e-19)
(0.7920984283720662 0.0004979416192059278 3.392021223473174e-19)
(0.8010340778904597 0.0005464979602448492 3.891580021483108e-19)
(0.8099550569455592 0.0005986864904812596 3.3515594510985e-19)
(0.8188665588913735 0.0006547335025676846 2.746740867715789e-19)
(0.8277735999235053 0.0007148733074664606 6.034323975556241e-20)
(0.836681106681667 0.0007793467517994555 6.485052581908964e-20)
(0.8455940054020699 0.000848398428255081 7.87071754848168e-20)
(0.8545172083071404 0.0009222712604804488 1.162032939388834e-19)
(0.8634552701974275 0.001001196745802425 2.787905868114204e-19)
(0.8724113308925525 0.001085379491374193 1.804733976336131e-19)
(0.8813848973682243 0.001174976270817578 1.777100231856916e-19)
(0.8903683497799071 0.001270072073089745 1.199297372168991e-19)
(0.8993431030715558 0.001370652240945983 -1.922937996243911e-19)
(0.9082778910826023 0.001476566711848094 -5.142433474450729e-19)
(0.9171319797811071 0.001587505233142607 -7.685667513589272e-19)
(0.925865821520069 0.001703011960414005 -1.182624069614754e-18)
(0.9344390111596081 0.001822372556992587 -1.758855131228435e-18)
(0.9428127518124229 0.001944488948763425 -2.639232264616436e-18)
(0.9509574614935077 0.002067864762305568 -3.742647655433165e-18)
(0.9588546062378402 0.002191057659420369 -4.184820714196917e-18)
(0.9664718026143921 0.002312920744277819 -3.784827448963117e-18)
(0.9737175508670645 0.002432784739895482 -5.957111110963816e-18)
(0.9804419325110274 0.002547621965955307 -5.731387500708495e-18)
(0.9866042174386331 0.00265558710768992 -2.138140092427617e-18)
(0.9923803876735202 0.002756857167701711 4.273634412192922e-18)
(0.9978071483764492 0.00284413898537698 1.032970091430319e-17)
(1.002553224104148 0.002911947115366898 1.266026273420887e-17)
(1.006043856415037 0.002988284558846995 3.741776811937721e-18)
(1.007893693322801 0.002996496086445723 8.914988413602838e-18)
(1.008299551092439 0.002979915095356794 4.165415718503438e-17)
(1.007808707116595 0.002944589526059169 -2.073891708232494e-17)
(1.007705703123841 0.002929567543591114 -3.018135652289772e-18)
(1.007677984162788 0.002895585982474334 3.143899669641766e-18)
(1.007594242328168 0.002857902636336658 1.15797999227227e-17)
(1.00751727716372 0.002822845817280182 4.128221386584496e-17)
(1.007438796004407 0.002783819182786419 3.353450554794134e-17)
(1.007354573484898 0.002740968057458912 -8.413116235540008e-18)
(1.007264604682993 0.002695406276010916 7.836853356489486e-17)
(1.007168620146917 0.002646461235039177 -1.011666785181122e-17)
(1.007066749114552 0.002594134758046748 3.048459703408607e-17)
(1.006958765743533 0.002538110520008561 1.422471642155999e-18)
(1.006853898091145 0.002478178523098751 2.970521998422484e-18)
(1.006748436941854 0.002413561461072974 9.092690269588457e-17)
(1.006637799449936 0.00234437618170153 1.29290848533099e-16)
(1.006521410338969 0.002270188575580949 1.872934269727502e-16)
(1.006399257587064 0.00219046054150411 2.467310888645861e-16)
(1.006272001667905 0.002104771194965559 2.873164786153608e-16)
(1.00613914488477 0.002012573290084761 2.910933596675656e-16)
(1.006000870372245 0.001913668038141034 2.802338256348145e-16)
(1.005857583057267 0.001806325525077972 2.590486458354432e-16)
(1.005710128810849 0.001690387498571342 1.100731164864478e-16)
(1.005559108225758 0.001566660831685502 7.369944198530237e-17)
(1.005405432179039 0.001432223515127691 -2.530109957529207e-17)
(1.005250956057893 0.001288779668422376 -1.475831895064714e-18)
(1.005097826302114 0.00113384584990413 -8.656233338711545e-17)
(1.004951773517993 0.0009628630054619276 -6.71961472821174e-18)
(1.004817042105467 0.000779320201507592 3.269022340157165e-17)
(1.004704935776655 0.0005821379352772655 1.949870633709268e-16)
(1.004622788888922 0.0003657022754100427 3.290602084717208e-16)
(1.004580515911606 0.0001290279383890315 3.594337906164501e-16)
(1.004589353640514 -0.0001321472303642396 4.238799807089522e-16)
(1.004659731482608 -0.0004176762631752122 3.043909341347776e-16)
(1.004833212308003 -0.0007431741444677082 1.297482709786876e-16)
(1.004722852669441 -0.0001579452749248467 1.50891541488321e-16)
(0.984742638915684 -0.004169324165393445 2.520633272355009e-17)
(0.01936865389508349 5.961616671928346e-09 4.202518721962474e-19)
(0.05824405374861394 9.88831521172755e-08 1.225696053774265e-18)
(0.09752538597978284 2.910535547733179e-07 2.002461595288238e-18)
(0.1374127216275071 5.900086561405461e-07 2.782359506295815e-18)
(0.1778760336078012 1.001027167882205e-06 3.5793054481375e-18)
(0.2183798875662547 1.53214665202666e-06 4.38906853235671e-18)
(0.2576915458481165 2.18952719329201e-06 5.163320786394511e-18)
(0.2942109329847705 2.973787388720323e-06 5.858706903695447e-18)
(0.3268112193385827 3.881309714143739e-06 6.479462380434463e-18)
(0.3553722642561902 4.908144012628003e-06 7.018812013607393e-18)
(0.3806338788772244 6.066548439686593e-06 7.479235445022068e-18)
(0.4032982100019215 7.370692899294052e-06 7.899632632254787e-18)
(0.4237547730884419 8.82743094125343e-06 8.26782903399236e-18)
(0.4423346825693827 1.044988624310824e-05 8.607912488567692e-18)
(0.4593324835265021 1.225456667005922e-05 8.908186673162355e-18)
(0.4750043505464739 1.425895677616512e-05 9.172344099421863e-18)
(0.4895683771558291 1.648305041879457e-05 9.406285826169127e-18)
(0.5032075458450478 1.89493024254352e-05 9.617222678561998e-18)
(0.5160737233834972 2.168293019539123e-05 9.802509311662031e-18)
(0.5282916145078579 2.471205782531108e-05 1.000274656761498e-17)
(0.5399639708683246 2.806836964014758e-05 1.019660935981083e-17)
(0.5511763604738731 3.17873620660466e-05 1.037334152877827e-17)
(0.5620022041560915 3.590746839661476e-05 1.054030009354052e-17)
(0.5725088741983286 4.046643805122748e-05 1.071842853930086e-17)
(0.5827658217960062 4.550445850885454e-05 1.08619269373119e-17)
(0.5928356785702967 5.10664675698967e-05 1.100948943852455e-17)
(0.6027540496482185 5.719489038021749e-05 1.116432462425038e-17)
(0.6125382311806714 6.393553944877e-05 1.129688012897627e-17)
(0.6222028730395439 7.134289009804733e-05 1.142481533282682e-17)
(0.6317603956501897 7.947555709429907e-05 1.154177649501618e-17)
(0.6412213314401375 8.839716792717506e-05 1.165338692032985e-17)
(0.6505946050872996 9.817716770348294e-05 1.177331863451061e-17)
(0.6598877642957941 0.0001088913494540018 1.183036708578443e-17)
(0.6691071707119428 0.0001206223820325974 1.192755626277305e-17)
(0.6782581589354688 0.000133460413546881 1.201688896701687e-17)
(0.6873451703034241 0.0001475037218560159 1.208102319701822e-17)
(0.6963718672105896 0.0001628595347317591 1.211122345024197e-17)
(0.7053412331429776 0.0001796456523396779 1.209473793488782e-17)
(0.7142556631327067 0.0001979930844759932 1.205664053275915e-17)
(0.7231170534812444 0.0002180390716211726 1.192378237690371e-17)
(0.731933764388078 0.0002399299023053671 1.18174009805675e-17)
(0.7407272393072352 0.0002638437575847393 1.167414466666138e-17)
(0.7495206407814453 0.0002899772185975737 1.150885853163451e-17)
(0.7583292208100585 0.0003185367547788894 1.127974222038946e-17)
(0.7671629817145138 0.0003497578457819128 1.115864450106864e-17)
(0.7760286438253786 0.0003839056004851768 1.104255894249607e-17)
(0.7849309690608481 0.000421278888602274 1.099576218168246e-17)
(0.7938735426807414 0.0004622172592098435 1.091198155033794e-17)
(0.8028591943082792 0.000507083199272836 1.086775675064829e-17)
(0.8118903621809354 0.000556259269287985 1.066787968432809e-17)
(0.8209695849669 0.0006101267314455196 1.059232153203961e-17)
(0.8301000672949086 0.0006690717593893865 1.032256631409109e-17)
(0.839286268994868 0.0007334942097411219 1.035886560182501e-17)
(0.8485344785839184 0.0008038105157333649 1.008347447384102e-17)
(0.8578532574222602 0.0008804482179491163 1.001245843710113e-17)
(0.8672533952570781 0.0009638296347597259 9.877473016665348e-18)
(0.8767464574715896 0.001054349673715547 1.007637502932699e-17)
(0.886340000245973 0.001152341926539441 1.001829546408069e-17)
(0.8960262660510274 0.001257989260063243 1.00934204772423e-17)
(0.9057839452572357 0.001371300970189837 1.047736092381571e-17)
(0.9155783273067493 0.001492064746160566 1.06045531262163e-17)
(0.9253582857777739 0.001619787292558756 1.049824143117373e-17)
(0.9350525013041989 0.001753606896462276 9.901040083699441e-18)
(0.9445729398352348 0.001892139230637232 8.770763736448072e-18)
(0.9538373731814384 0.002033576434141709 7.76361647180883e-18)
(0.962758382004321 0.002175425994492433 8.59805952505539e-18)
(0.9712477856305647 0.002314851231212356 9.398909020790205e-18)
(0.9792067770920534 0.002449530844219007 1.498884740716497e-17)
(0.9865121132691902 0.002575584642621177 2.16840341036577e-17)
(0.9932126565671265 0.002690533318311753 2.692624415226787e-17)
(0.9993621061249872 0.002800311043151372 2.969825740589429e-17)
(1.00455766222186 0.002889767979470483 3.25448078713806e-17)
(1.007980239775966 0.002929868168824941 2.78094196871791e-17)
(1.009322546193805 0.002945723247066877 -6.849586277104008e-18)
(1.009272291896398 0.002943316047083783 -1.98239980056057e-17)
(1.009024260307455 0.002908705424777167 2.884355913513769e-17)
(1.008979133988011 0.00287762680748441 4.21595014344833e-17)
(1.008909817579555 0.002850793187237314 9.666123349341672e-17)
(1.008825792872551 0.002818582159855438 6.685944108245032e-17)
(1.008737838073889 0.00278246430203612 -1.562515350924667e-18)
(1.008647184974106 0.002743413957209684 6.251815228837196e-17)
(1.008552222053837 0.002700319986202974 -5.479591745551383e-18)
(1.008452021224541 0.00265305624734156 -2.174626190794703e-17)
(1.008345924067815 0.002601370056935638 -6.910918368541243e-17)
(1.008236109351369 0.002544639644308579 -1.552173244947079e-16)
(1.008122435198969 0.002482598240736579 -1.435306186677754e-16)
(1.008004014664494 0.002415283654278526 -2.129732636908451e-16)
(1.007880460440781 0.002342045260880791 -2.249360246450651e-16)
(1.007751947440676 0.002262410116577833 -2.035995278955048e-16)
(1.007618230611964 0.002175965773612691 -2.92827805936771e-16)
(1.007480403617078 0.002082040482681824 -3.386075015229127e-16)
(1.007339031694716 0.001980617758193944 -4.305152928871951e-16)
(1.007194759002719 0.001870515107977143 -4.916751940118728e-16)
(1.00704861843034 0.001751101668383181 -6.568963200897727e-16)
(1.006901470798738 0.001623268179316568 -6.56242197766816e-16)
(1.00675415455829 0.001483979377221421 -7.486327117504776e-16)
(1.006608470859299 0.001334827495744683 -6.40032509030292e-16)
(1.006466131321795 0.001174866559275166 -6.194626918785516e-16)
(1.006334139427817 0.001000146124249811 -4.062511085712828e-16)
(1.006225298632068 0.0008131345313045495 -1.831344231813629e-16)
(1.006137157042945 0.0006114173629062461 9.07908600182958e-17)
(1.006075773762278 0.000391619429079102 3.84050912619124e-16)
(1.006048587866767 0.0001550178808331316 5.017486061521682e-16)
(1.006066318960643 -0.0001012987955053535 5.891704730186053e-16)
(1.006148305536151 -0.0004020604212302657 4.213661908867985e-16)
(1.006275866945527 -0.0009187147921673117 1.959397916021401e-16)
(1.005654387861653 0.001567203644277381 1.45372658415042e-16)
(0.9804185610578412 -0.007831500520670245 1.812381198485341e-17)
(0.0184032760141894 6.417312952024381e-09 2.934003579276145e-19)
(0.05534112557161928 1.065156150236623e-07 8.823260545385063e-19)
(0.09266636064167849 3.135768809977811e-07 1.477446298760032e-18)
(0.1305794117785137 6.357683936843287e-07 2.081922920918745e-18)
(0.1690897680665667 1.078446615940945e-06 2.695840873587756e-18)
(0.2077788110163871 1.648117453045149e-06 3.312426052307438e-18)
(0.2456023226589559 2.344927693481558e-06 3.914905069094521e-18)
(0.2810977006540513 3.15749578411209e-06 4.479855143791689e-18)
(0.3130981385708313 4.068597428947864e-06 4.988627145770786e-18)
(0.3412575805412282 5.062082719179241e-06 5.435713375444802e-18)
(0.3661918384644358 6.143034443458006e-06 5.830918515836451e-18)
(0.3886060667456796 7.323371514472566e-06 6.1854465111764e-18)
(0.4088758508863222 8.605772877806521e-06 6.505241959417599e-18)
(0.4273108113886184 9.997501738799097e-06 6.795183219630377e-18)
(0.4441882574351405 1.15083512262791e-05 7.059612670316664e-18)
(0.4597520043873594 1.314975479158851e-05 7.302327390979896e-18)
(0.4742113066914618 1.493485376844173e-05 7.530938392014374e-18)
(0.48774257218123 1.687861628685862e-05 7.75923457379453e-18)
(0.5004927886434 1.89979410363137e-05 7.97720137171896e-18)
(0.512583825955031 2.131182030389472e-05 8.18268851567646e-18)
(0.5241174592747321 2.384152373266665e-05 8.377484261516892e-18)