/*--------------------------------*- C++ -*----------------------------------*\
| =========                 |                                                 |
| \\      /  F ield         | OpenFOAM: The Open Source CFD Toolbox           |
|  \\    /   O peration     | Version:  v1812                                 |
|   \\  /    A nd           | Web:      www.OpenFOAM.com                      |
|    \\/     M anipulation  |                                                 |
\*---------------------------------------------------------------------------*/
FoamFile
{
    version     2.0;
    format      ascii;
    class       volVectorField;
    location    "0.00000125";
    object      U;
}
// * * * * * * * * * * * * * * * * * * * * * * * * * * * * * * * * * * * * * //

dimensions      [0 1 -1 0 0 0 0];


internalField   nonuniform List<vector> 
44064
(
(0.02920145573721061 2.062182228444642e-05 9.217544597069521e-20)
(0.08721360182812568 6.149148288385813e-05 2.564945502173292e-19)
(0.1452598399548587 0.0001008041403460586 4.440993550446665e-19)
(0.2034662093645142 0.0001389653836348495 6.346479646834039e-19)
(0.2610583198136012 0.0001763904372580557 8.469585243770835e-19)
(0.3157725725313979 0.0002133461803407567 1.071598560331665e-18)
(0.3646725927454129 0.0002499314953271505 1.274804232443462e-18)
(0.4062332184560866 0.0002858885689840167 1.433866986680974e-18)
(0.441608640494508 0.0003218528269930069 1.57082820121427e-18)
(0.4723229707633815 0.0003583545647771453 1.667744672889962e-18)
(0.4991976156841292 0.0003952361536419855 1.753700425947683e-18)
(0.522917487358692 0.0004326395782803349 1.830779120466337e-18)
(0.5440629471270427 0.0004706965096283704 1.900776111693164e-18)
(0.5631125150772412 0.0005094893565576251 1.965200873019942e-18)
(0.5804532771510099 0.0005490686350316963 2.011583527223717e-18)
(0.5963955308262575 0.000589463708402891 2.055495111408185e-18)
(0.6111875572400767 0.0006306906101676927 2.097509554138059e-18)
(0.6250286057230977 0.0006727638500456454 2.138030693504231e-18)
(0.6380795372033543 0.000715711407055111 2.184615679343436e-18)
(0.6504711964383074 0.0007595891067595249 2.19514781782997e-18)
(0.6623108210568098 0.0008044909546444106 2.212451449455795e-18)
(0.6736868620901355 0.0008505527410425797 2.209856434024038e-18)
(0.6846725947123365 0.0008979463509357031 2.188304772230739e-18)
(0.6953288709175643 0.0009468652713863626 2.167248206574716e-18)
(0.7057062936528234 0.0009975076491249488 2.129214195398825e-18)
(0.7158469700207349 0.001050064865473019 2.092662616742061e-18)
(0.7257858810138449 0.0011047175721308 2.039774156148388e-18)
(0.7355518311786031 0.001161635971867369 1.988115571030899e-18)
(0.7451679047390416 0.001220979546048335 1.937634577384691e-18)
(0.7546513288400499 0.001282896626981879 1.88821439853566e-18)
(0.764014924693354 0.001347525022353753 1.839789012025592e-18)
(0.7732683312935797 0.001414993667588141 1.792441582847014e-18)
(0.7824188658174936 0.00148542209153095 1.709571176677884e-18)
(0.7914721997868479 0.0015589194807469 1.626558126395955e-18)
(0.8004329547256328 0.001635583457169802 1.54329284009814e-18)
(0.8093052416626403 0.001715498385455325 1.459343903943365e-18)
(0.8180930580100849 0.001798733793825663 1.374183949551369e-18)
(0.8268002937670067 0.00188534390034767 1.287555988026922e-18)
(0.8354298900382755 0.001975362420819917 1.118532544049027e-18)
(0.8439818352531329 0.002068799577632125 9.4347969976497e-19)
(0.8524538754076146 0.00216563725629592 7.62428848049962e-19)
(0.8608419340310119 0.002265829498457602 4.885380987662302e-19)
(0.8691403277309615 0.002369297563696402 2.044053453447348e-19)
(0.8773418520307305 0.002475925635019287 2.836210393714909e-21)
(0.8854378244176385 0.00258555671791206 -1.029439571699223e-20)
(0.8934182042258448 0.002697988223380876 -2.110599583821289e-19)
(0.9012719443872754 0.002812966971416186 -2.085928062891449e-19)
(0.9089877169490297 0.002930183700124505 -1.967200087371022e-19)
(0.9165549897186414 0.00304926797557934 -1.778032924386785e-19)
(0.9239649634037759 0.003169782498246456 -1.545945100278588e-19)
(0.931209973294902 0.003291186239249852 -1.155335148348604e-19)
(0.9382787111209552 0.003412834401271773 -1.96533216818093e-19)
(0.9451433337031754 0.003533975896170933 1.748447655460146e-19)
(0.9517369941191015 0.003653846515678122 4.562338018456061e-19)
(0.9579342855613877 0.003771763182449261 8.258393383173241e-19)
(0.9635726295053247 0.00388676722526488 1.923949470115665e-18)
(0.9685610661441973 0.003996471788605338 3.179235891978213e-18)
(0.9730687390483197 0.004101254297188308 4.667917027020358e-18)
(0.9773320317938651 0.00420228046897109 6.631254186521061e-18)
(0.981413943699652 0.004296870342282223 8.597038800734838e-18)
(0.9852930632218804 0.004383225152691305 9.078813644058349e-18)
(0.9889354291261229 0.00446053646228787 7.496489524521516e-18)
(0.9922875083567428 0.004527292679351046 5.543046569360701e-18)
(0.9952681623354197 0.004579304961157142 3.726950072484009e-18)
(0.9977625402491943 0.004608296209330577 1.610731439469106e-18)
(0.9996579098056207 0.004635193040632615 -1.817536991330205e-18)
(1.001104170745142 0.004679201840350603 5.984101086645748e-18)
(1.002243299796404 0.004650011664051507 3.95755613136044e-18)
(1.003021734270391 0.004638675821043037 1.851742821362293e-18)
(1.003149050782326 0.004589582652723467 1.485516278485142e-18)
(1.002880851516326 0.004504741753516671 -2.38119534034109e-17)
(1.002653186661003 0.004432149623205674 -7.63587304199759e-18)
(1.002817320019827 0.00446043327182619 -3.140707281086925e-18)
(1.002704297644107 0.004350379677411026 -1.029013212249932e-18)
(1.002546188024963 0.004259502440530824 -2.851272866808349e-18)
(1.002496243125542 0.004206849686010432 -8.441672171984574e-19)
(1.002443239375058 0.004122304878836885 -1.310274188747897e-18)
(1.002381809650233 0.004031398307609077 3.287144456338459e-17)
(1.002321240712062 0.003939144959157924 4.478663432739875e-18)
(1.002255572327274 0.003838668269060115 2.64637267338432e-19)
(1.002184694835293 0.003731652491812192 5.234527593290324e-17)
(1.002109416954237 0.00361804579330605 3.363025865048155e-17)
(1.002030531355844 0.003497830115086397 2.564784506339357e-17)
(1.001947496594619 0.003370673153503813 3.915366981940319e-17)
(1.001860353994978 0.003236701484144915 2.752459467114302e-18)
(1.001769389901546 0.003096025818540583 5.950705334641883e-17)
(1.001674813478956 0.002948764579830483 4.225033938919476e-17)
(1.001576926174839 0.002795162638829045 6.32890163227506e-17)
(1.001476077105352 0.002635471507156571 8.924753380600121e-17)
(1.00137299977456 0.002470593017789263 8.319601038141536e-17)
(1.00126648785821 0.00229806157999154 1.121955580371516e-16)
(1.001172259219334 0.002125325866589397 1.301592913182113e-16)
(1.001077877696091 0.001946775835263708 1.028513188573025e-16)
(1.000982666161323 0.001765117252649999 9.687333101382533e-17)
(1.0008877767626 0.001582391674620443 8.936444244222897e-17)
(1.000785389190407 0.001398722196004338 9.172540708926419e-17)
(1.000663066160378 0.001206959593408837 9.482521236136994e-17)
(1.000559527560744 0.001015627130596598 7.226571905728328e-17)
(1.000517645695659 0.0008378086063634178 6.374009068505074e-17)
(1.000482314640882 0.0006457109037558223 3.666809148521645e-17)
(1.000454514723238 0.0004480735819934514 2.464411290442349e-17)
(1.000435794304659 0.0002424282076367897 3.375301961346056e-17)
(1.000428200039514 2.440860054692538e-05 2.40411676664014e-17)
(1.000434738734073 -0.0002128724615129497 2.23123575558073e-17)
(1.00046005207169 -0.0004812558529900421 -2.73359133019267e-18)
(1.00051095069173 -0.0007844119640471335 6.488635427237804e-19)
(1.000584368421699 -0.0009517026940312844 2.692670419091142e-17)
(0.9952961414015236 -0.001344722733304948 -2.295379705391816e-17)
(0.01178298306677779 1.838072760613796e-08 -5.835861679342047e-20)
(0.03543145917603212 2.805193818004416e-07 -1.752827575795978e-19)
(0.05933193111407883 8.072432795157658e-07 -3.171455514522156e-19)
(0.08365295229628453 1.608352521469804e-06 -4.855569825661732e-19)
(0.1085586002675481 2.675731607372882e-06 -6.576773457125338e-19)
(0.1342004922980192 3.98311112528905e-06 -8.346977143093757e-19)
(0.1607058261174514 5.475741988669444e-06 -9.910253633026687e-19)
(0.1881657894980347 7.087194957079479e-06 -1.181091461218463e-18)
(0.2166313954192349 8.799415394583749e-06 -1.35052924879166e-18)
(0.2461205882042215 1.061000027486495e-05 -1.499003694954672e-18)
(0.2766321726055943 1.255713604411273e-05 -1.627249487997219e-18)
(0.3081558758481666 1.467542194472323e-05 -1.701683732002232e-18)
(0.3406687999880979 1.699144841972541e-05 -1.783681545208488e-18)
(0.3741153800714247 1.953795167345237e-05 -1.871285389566033e-18)
(0.4083713096364469 2.235344539891198e-05 -1.895064508334344e-18)
(0.4431920371506771 2.548094688725303e-05 -1.92459780219635e-18)
(0.4781571179626704 2.896631538578087e-05 -1.936872449325565e-18)
(0.5126541505899609 3.285441644299291e-05 -1.937218570228264e-18)
(0.5459477530458261 3.718638077652501e-05 -1.924332869954059e-18)
(0.5773059053589434 4.201998068794957e-05 -1.857534465851175e-18)
(0.6061170085340665 4.740013379506188e-05 -1.744128041199449e-18)
(0.6319927486062074 5.335255233902168e-05 -1.535432909764303e-18)
(0.6548501406856386 5.989843680379922e-05 -1.369283599084537e-18)
(0.6749134456003704 6.709024268470399e-05 -1.150599794307059e-18)
(0.6925864133148264 7.496713461017154e-05 -9.730936806597283e-19)
(0.708290864935376 8.357755211308126e-05 -8.133801825748213e-19)
(0.7223857297754323 9.296705610879276e-05 -6.714332845500409e-19)
(0.7351730755588116 0.0001031902725597905 -5.446525070292921e-19)
(0.746902036553707 0.0001143131109339393 -4.299398786615376e-19)
(0.7577684702990708 0.0001264021066021242 -2.788053834701404e-19)
(0.7679247915365387 0.000139530418195059 -2.229358074103527e-19)
(0.7774905481276646 0.0001537773545347354 -1.705013940737617e-19)
(0.7865605651622154 0.0001692277546285025 -1.211812242516259e-19)
(0.7952108836725071 0.0001859719012416286 -7.475305112882507e-20)
(0.8035030906326204 0.0002041055670510424 -3.105180746234625e-20)
(0.8114874883804287 0.0002237300775086593 1.005646947884403e-20)
(0.8192054258716974 0.0002449523380677415 1.151784710346964e-19)
(0.8266910194543504 0.0002678851801963168 2.174352187298077e-19)
(0.8339725497569246 0.0002926500347980473 1.916901326343711e-19)
(0.8410750076944402 0.0003193706530826054 1.690131758460059e-19)
(0.8480195065027665 0.0003481784296742361 2.743983812213724e-19)
(0.854823878239093 0.0003792092563861383 2.623870709167354e-19)
(0.8615031341948061 0.0004126026500204326 2.534255345114619e-19)
(0.8680698231863392 0.0004485007182490319 2.401794316708922e-19)
(0.8745343115687992 0.0004870464897713157 2.491485305100085e-19)
(0.8809050024946619 0.0005283815172267779 3.157017198982073e-20)
(0.8871885083252524 0.0005726454269444839 -1.639594304152043e-19)
(0.8933897864666792 0.0006199852051267729 -6.08198672412335e-19)
(0.8995122450234267 0.0006705652349041338 -1.05972714403068e-18)
(0.9055578196735845 0.0007243871331631285 -1.520972071894974e-18)
(0.9115613000983149 0.000781586991047891 -1.653141926819258e-18)
(0.9175762188415385 0.000842432073564588 -1.713405176352621e-18)
(0.9236273116184285 0.0009069591020696404 -1.683372956954468e-18)
(0.9297141309767502 0.0009751930564376009 -1.954524398806369e-18)
(0.9358146659473724 0.001047027602889362 -2.263870039878849e-18)
(0.9418888322194798 0.001122064303019027 -1.969438541168198e-18)
(0.9478834877107447 0.001199571497331774 -1.728514127647483e-18)
(0.9537377088311684 0.001278830191146486 -8.386772860438469e-19)
(0.9593866193307786 0.001359168577750656 -2.575845283096004e-20)
(0.9647765022850822 0.001439834262481398 6.714564062258279e-19)
(0.9699160052019858 0.001519996476091127 1.170968141937366e-18)
(0.9749071000224601 0.001599583285691634 3.858119253312013e-19)
(0.9798271872103678 0.001678093061534229 -9.464142653568866e-19)
(0.9846716183569552 0.001755287067804034 -3.259726922991443e-18)
(0.9894189456703251 0.001832547104603884 -3.707797364721498e-18)
(0.9939947856907592 0.001895474477188507 -5.251434874382213e-18)
(0.9981673234447914 0.001938469706873695 -1.818551734823411e-18)
(1.001697545053365 0.001995647141013232 1.295499168716508e-18)
(1.004380800303104 0.002026183651305549 7.031594835802846e-18)
(1.00601822662433 0.00208923519513652 2.478257115374551e-19)
(1.006845254610573 0.002057078174087122 -1.871667340242197e-17)
(1.006789147580525 0.002091025811910396 -1.282912884430993e-17)
(1.006155057493292 0.002075708891589212 1.766781052812595e-17)
(1.006467235864777 0.002074586676200137 3.953067209405298e-18)
(1.006472454063703 0.002079770683030434 4.8544084475317e-17)
(1.006334997076326 0.002087192777765985 4.910242184669791e-18)
(1.006232227413306 0.002084725813157418 -4.968655145561696e-18)
(1.006127753667093 0.002086628645019621 2.819411102253346e-17)
(1.006009409822941 0.002089153667168493 4.445331890296178e-17)
(1.00588690496649 0.00208933759064347 -3.512356183044555e-17)
(1.005758908257648 0.00208870908998095 2.579994117832058e-17)
(1.005623833931125 0.002086447902711012 3.48580932291206e-17)
(1.005481000454236 0.002081974403868946 1.610229392857001e-17)
(1.005331528966446 0.00207472960513856 9.372274624583686e-17)
(1.00517561038524 0.00206411073688588 9.515480021610472e-17)
(1.005013386525861 0.002049337627806224 1.883669348712077e-16)
(1.00484532276467 0.00202955741950398 2.881705746699936e-16)
(1.004671941946405 0.002003868183046106 3.88943943578421e-16)
(1.004493856198941 0.001971058393290474 4.513567983395954e-16)
(1.004311711634382 0.001930823330122366 5.33652182676156e-16)
(1.004126180901631 0.001880851042743579 6.076074386495503e-16)
(1.003919754683931 0.001820000128712143 6.665517986652825e-16)
(1.003711595931002 0.001746536180398179 6.221290250727985e-16)
(1.003505232979365 0.001659864840987554 5.976325608129649e-16)
(1.003302215184518 0.001557474203666127 5.455547818551733e-16)
(1.003115552605539 0.001440096395651796 4.544333593339004e-16)
(1.002955374162748 0.001306968624676286 4.320201609940472e-16)
(1.002803192308157 0.001151065506018406 2.909391256417384e-16)
(1.00267519158404 0.0009711506377572455 2.598489317965358e-16)
(1.002565121264755 0.0007699760372344058 1.902791220916971e-16)
(1.002476933221111 0.0005513412137384064 2.177089638590097e-16)
(1.002416188724644 0.0003105657412921592 1.873324227140685e-16)
(1.00239010119505 4.743195711120055e-05 1.466784386165313e-16)
(1.002407754091491 -0.0002365008376686315 1.807614526567254e-16)
(1.002482735017828 -0.0005469773657442596 1.269104501650167e-16)
(1.002637658425016 -0.0009227422401147222 5.650838258214845e-17)
(1.002772425531281 -0.001042971557990858 3.080920844813925e-17)
(0.98964568195183 -0.002126822324357502 -9.629441287073265e-18)
(0.02178738668790488 -2.865153318852624e-08 2.068977076370773e-19)
(0.06551804773216113 -4.746385091392324e-07 6.231883929461685e-19)
(0.1097019383288106 -1.396466670132641e-06 9.794554379086378e-19)
(0.1545348664303113 -2.830267614344817e-06 1.362119102766155e-18)
(0.199876475347803 -4.802658584206027e-06 1.736404644825412e-18)
(0.2448912078677022 -7.351004989078069e-06 2.101071555276742e-18)
(0.2879111708076194 -1.048343016770719e-05 2.466301408731205e-18)
(0.3270724546417537 -1.413928204489373e-05 2.815473277541599e-18)
(0.361358888884845 -1.818095918095353e-05 3.105530371264823e-18)
(0.3910854503457602 -2.247063600177162e-05 3.305561455378319e-18)
(0.4172127233112689 -2.690153590216412e-05 3.469328075380839e-18)
(0.4404819793435111 -3.133954643743872e-05 3.611997763039307e-18)
(0.4613711843568085 -3.563018812293958e-05 3.741607611688212e-18)
(0.4802819341598418 -3.961911436525787e-05 3.870771826649514e-18)
(0.4975583315817528 -4.313485305595567e-05 3.97310309967916e-18)
(0.5134900451426399 -4.598899811612252e-05 4.07154200027803e-18)
(0.5283165141698866 -4.798326918511347e-05 4.151102876865705e-18)
(0.5422326130842734 -4.892095376924882e-05 4.228050236992823e-18)
(0.5553946999228689 -4.862130101684048e-05 4.315381623644132e-18)
(0.5679264512260194 -4.693983182388186e-05 4.39484285390675e-18)
(0.5799293270481078 -4.377222607154859e-05 4.481343417079856e-18)
(0.5914893532172801 -3.905671932064651e-05 4.564948580593616e-18)
(0.6026785413667747 -3.276922714092793e-05 4.637871594873051e-18)
(0.6135527838356342 -2.491618029998153e-05 4.690364190511988e-18)
(0.6241569819713298 -1.549982757756692e-05 4.716074612249194e-18)
(0.6345282469775593 -4.513021690194017e-06 4.742972141126461e-18)
(0.6446979296277279 8.064521002601722e-06 4.743341342311422e-18)
(0.6546929515187552 2.226716419812679e-05 4.747886304308363e-18)
(0.6645367206312781 3.814262717323993e-05 4.786176766773032e-18)
(0.6742497174002915 5.575296008431241e-05 4.806467068276364e-18)
(0.6838499041338493 7.517388536781978e-05 4.836394110661683e-18)
(0.6933530266139688 9.649343683991985e-05 4.870522945635517e-18)
(0.7027728448405618 0.0001198111511130173 4.914297842448049e-18)
(0.7121213123909858 0.0001452377772422118 4.921269450620444e-18)
(0.7214087164838144 0.000172895310335457 4.888149636777439e-18)
(0.7306437910016256 0.0002029149863789963 4.857466951316006e-18)
(0.7398338215537019 0.0002354358259958988 4.825657270331865e-18)
(0.7489847556077143 0.0002706018912734222 4.742796782205814e-18)
(0.7581013125294793 0.0003085610052755503 4.619089842592946e-18)
(0.7671870814809842 0.0003494645901311773 4.445798762280933e-18)
(0.776244592300076 0.0003934670930026769 4.303878533069019e-18)
(0.7852753531799188 0.0004407247649902478 4.211998617811858e-18)
(0.7942798473105069 0.0004913940338116362 4.077567805724626e-18)
(0.803257477827222 0.0005456294700454248 3.986050692555551e-18)
(0.8122064496097712 0.0006035812622006334 3.990515084982181e-18)
(0.8211235834555495 0.0006653920799135603 3.99221870172285e-18)
(0.8300040814474864 0.000731193104733427 3.949991842906756e-18)
(0.8388413114320936 0.0008010984591418682 3.900951172132286e-18)
(0.8476267582487846 0.0008751962163378605 3.83600698980191e-18)
(0.856350386494078 0.0009535367196741386 3.86277591940344e-18)
(0.8650017192140808 0.001036150465606459 4.059342984736056e-18)
(0.8735718377426576 0.00112303946951798 4.199693452258211e-18)
(0.8820572232067989 0.001214203910551445 4.238263990160522e-18)
(0.8904615090556481 0.001309627958392458 4.391768797734063e-18)
(0.8987894053270602 0.001409244645577291 4.706392767366978e-18)
(0.9070408448349842 0.001512902632200888 4.612032748660676e-18)
(0.9152054992621338 0.001620332594203713 3.817874757525993e-18)
(0.9232597484965768 0.001731097249834101 2.906208100258127e-18)
(0.9311699447290076 0.001844540891435707 2.527618505306466e-18)
(0.9389029533955803 0.001959773697013961 1.417015939772379e-18)
(0.9464393527647992 0.002075769215784765 1.222021892513257e-18)
(0.9537795609143191 0.002191569445581034 1.320607830555458e-18)
(0.9609318106420998 0.002306324663819409 8.77316312414319e-19)
(0.9678825703998332 0.002419459319164408 1.07780877297476e-18)
(0.9745633055852846 0.002530455438646011 -3.676587681840628e-19)
(0.9808530995026417 0.002637248612262034 -1.122957732785636e-18)
(0.9867212533523666 0.002737411338082012 2.498287719456676e-18)
(0.9922964115737305 0.002832158927237586 8.325373719818583e-18)
(0.9975787674594225 0.002914320277279415 1.181173898719842e-17)
(1.002243527055031 0.002976009840153781 8.805509145470584e-18)
(1.005720748279252 0.003045537448059452 -5.206206301995623e-18)
(1.007522762555817 0.003035762050112328 1.48603219444711e-18)
(1.007911788210963 0.003071011652225432 6.423999348110421e-17)
(1.00744367295675 0.00297335977984917 -8.398165995976212e-18)
(1.007353879875479 0.0029716623841987 3.730539876110658e-17)
(1.007322315603517 0.002937010498934738 7.118997607888764e-18)
(1.007246561693049 0.002895080737984946 3.204688950245514e-17)
(1.00717558654591 0.002855476140223273 7.477129066778443e-17)
(1.007105764369395 0.002811761377336392 7.86925276945599e-17)
(1.007028885095056 0.002764045476518561 -1.037010868301837e-17)
(1.006945970267903 0.002713509628451621 9.937038165018607e-17)
(1.006857789945549 0.002659242067508618 2.823576133051364e-17)
(1.006765107852354 0.002601115214231581 1.904117829783458e-17)
(1.006667062687168 0.002539107233015758 5.68240074016978e-17)
(1.006563540758947 0.002473030921510249 6.857912149069281e-18)
(1.00645467312331 0.002402631868310015 4.284998047121413e-17)
(1.006340451972517 0.002327701710453331 1.165313189441388e-16)
(1.006220937213513 0.00224806355433873 1.29548382908874e-16)
(1.006096260411176 0.002163098113384166 1.499504655374703e-16)
(1.005966748406176 0.002073120881324195 2.238628338822686e-16)
(1.00583258763284 0.001977021748775606 2.765239282103339e-16)
(1.005711366426107 0.001874684954831664 2.426288530293721e-16)
(1.005587863498014 0.001764100735207489 1.689582385200343e-16)
(1.005460715174511 0.001645591025416735 8.035246843045194e-17)
(1.005330581331638 0.001516522490956547 9.123742924840976e-17)
(1.005198790950246 0.001376917202541522 -9.670413195410216e-18)
(1.005065838154432 0.001228822615802574 -8.691919856357303e-18)
(1.004933445377729 0.001067687935335693 -8.055940319557079e-17)
(1.004808671967034 0.0008908177720411038 -9.789773494159736e-18)
(1.004699743163611 0.0007019555916379327 3.726126444409096e-17)
(1.004610956978172 0.0004990201919850815 1.847893089106855e-16)
(1.004548886599716 0.0002769212362829414 3.325750306009851e-16)
(1.004522104569918 3.414681719958536e-05 3.44765494915164e-16)
(1.004541915812924 -0.0002290776552857944 3.773201971863293e-16)
(1.004621792512198 -0.0005095054129661457 2.735747555868681e-16)
(1.004784346796818 -0.0009349288519391748 1.940449280715295e-16)
(1.004830382844119 -0.0007394637511694861 1.201789946420746e-16)
(0.9841358386350311 -0.002603753666025542 2.817718585336549e-17)
(0.0209806719320134 5.628825636104792e-09 5.278561134439223e-19)
(0.06309123011700436 9.327757931194378e-08 1.563062638020829e-18)
(0.1056370927609122 2.744820880421571e-07 2.585671499646138e-18)
(0.1488088498410032 5.562400553086026e-07 3.600447101376263e-18)
(0.1924781931164939 9.43480976530182e-07 4.626383546637955e-18)
(0.2358419010353748 1.444133591377078e-06 5.676228776810965e-18)
(0.2772715056403928 2.064758956379757e-06 6.64744774420632e-18)
(0.314938477855795 2.806769533203891e-06 7.508761476009548e-18)
(0.347867686648716 3.664114729947602e-06 8.268709382225819e-18)
(0.3764376488460354 4.637319152161077e-06 8.930913661733962e-18)
(0.4015801972889828 5.736921012736303e-06 9.512282512918845e-18)
(0.4239670434149313 6.969368680994237e-06 1.003001288925393e-17)
(0.4440414181375517 8.341854241666741e-06 1.049541928713816e-17)
(0.4621778103637842 9.86733329968915e-06 1.09080694963885e-17)
(0.4786974426656134 1.156164168165727e-05 1.128545804481069e-17)
(0.4938711713486147 1.344335074973454e-05 1.162390842216275e-17)
(0.5079240804982035 1.553410511896736e-05 1.194056452239183e-17)
(0.5210418313084184 1.785875363746333e-05 1.223909675320906e-17)
(0.5333778872917601 2.044518031133011e-05 1.25040805166112e-17)
(0.5450614530912729 2.332507204656007e-05 1.276755811024762e-17)
(0.556201263890413 2.653336301580164e-05 1.301583018118691e-17)
(0.5668875492078363 3.010938729415604e-05 1.325226009354256e-17)
(0.5771930931622712 3.409684723731702e-05 1.348007678436919e-17)
(0.5871781442450963 3.854386011452837e-05 1.372171415039496e-17)
(0.5968944593151981 4.350104303903896e-05 1.392344273480821e-17)
(0.6063891545502712 4.901917468412412e-05 1.413315271691039e-17)
(0.6157088659640088 5.515541787319325e-05 1.434555957822552e-17)
(0.6248895559723386 6.197105123719486e-05 1.455180410859386e-17)
(0.6339501454325835 6.953009507801303e-05 1.473394066010896e-17)
(0.6429029073135265 7.790573517698558e-05 1.488911459682645e-17)
(0.651758484965356 8.718030090800639e-05 1.507811716010744e-17)
(0.6605261586808771 9.744439626986046e-05 1.524481025971594e-17)
(0.6692140674095236 0.0001087987068024271 1.534418687936437e-17)
(0.6778294009417253 0.0001213559661915795 1.545349858061027e-17)
(0.68637857790601 0.0001352359933706509 1.557230475559327e-17)
(0.6948739631617912 0.0001505731292515649 1.566572725811958e-17)
(0.7033350778532792 0.0001675230803819639 1.574465371040239e-17)
(0.7117801156239663 0.0001862538497606751 1.582799169877463e-17)
(0.7202233917175916 0.0002069496212170411 1.590113865681713e-17)
(0.7286764713380505 0.0002298155109806525 1.595614270629154e-17)
(0.7371490131662234 0.0002550783882749097 1.602811960169083e-17)
(0.7456493514409913 0.0002829888920655174 1.603991559749692e-17)
(0.754184859439287 0.000313824434164677 1.60822444103511e-17)
(0.7627621655818518 0.0003478854898572106 1.608543307587929e-17)
(0.7713873371941642 0.0003854893124259673 1.612097652630327e-17)
(0.7800661464522116 0.0004269624321205931 1.623201198737053e-17)
(0.7888044535535952 0.0004726340009918916 1.627587538073858e-17)
(0.7976086813692613 0.0005228362188499766 1.626433694438827e-17)
(0.8064863110330449 0.0005779018981469671 1.628233042497212e-17)
(0.8154462042249984 0.000638159957874443 1.610035528947851e-17)
(0.8244983194832066 0.000703931539921461 1.595704733722127e-17)
(0.8336520167805205 0.0007755268848341658 1.585544563179464e-17)
(0.8429116923315791 0.0008532352003601294 1.578764359592315e-17)
(0.8522735927231577 0.000937315369976933 1.537179724878011e-17)
(0.8617289836784358 0.001027999721855049 1.527213423349177e-17)
(0.8712652695315318 0.001125484234142021 1.530490460827688e-17)
(0.8808651634889501 0.001229898535317435 1.530106556138596e-17)
(0.890504373275479 0.001341260973752214 1.557639448685738e-17)
(0.9001488592626639 0.001459417811215741 1.538238512980288e-17)
(0.9097536555990704 0.001583966010011482 1.542082575254128e-17)
(0.9192666879242637 0.001714178626716984 1.519210633300533e-17)
(0.9286424484508805 0.001849072254078602 1.44116422328376e-17)
(0.9378492077647456 0.001987528521696795 1.437395931277711e-17)
(0.9468569253290725 0.002128252620326801 1.389813043150736e-17)
(0.9556251086333458 0.002269653640663911 1.477603449480636e-17)
(0.9640981404110071 0.002409757092626632 1.588571527522963e-17)
(0.9722092396436713 0.00254656103914189 1.605470674004436e-17)
(0.979869440912024 0.002678099213431118 1.761696158082829e-17)
(0.9869541518735223 0.002801029454942313 2.586939854363289e-17)
(0.9934822895783233 0.002912959385896093 2.841265470995347e-17)
(0.9994889752157532 0.003020155247504218 2.93177032889596e-17)
(1.00456864364179 0.003109157990558683 3.41640768845451e-17)
(1.007898218720977 0.00312671113725991 3.497487295398548e-17)
(1.009237291471828 0.003171815379843696 -1.934951486356298e-17)
(1.009069335617861 0.003149651045882918 1.57738594822188e-17)
(1.008804637909567 0.003112286478915397 4.818693866503507e-17)
(1.008782117540798 0.003081303641197871 6.794412772831231e-17)
(1.008717464625765 0.003050899948834232 1.049805579987327e-16)
(1.008625701774003 0.003015297344286519 1.176246765873886e-16)
(1.008544168699316 0.002975305778910993 2.336295801459032e-17)
(1.008462937942353 0.002932120254733525 1.080942373369056e-16)
(1.008376284067221 0.002884770541480423 1.761376180736794e-17)
(1.008280939430481 0.002832826614610848 -7.825245979460592e-18)
(1.008181251583668 0.002775863606088182 -7.032912540905673e-17)
(1.008076912901496 0.002713433767814479 -1.602694127700982e-16)
(1.007967222619517 0.002645092143487026 -2.023604507306153e-16)
(1.007852550837733 0.002570316149024304 -2.501161456977103e-16)
(1.007733159191891 0.002488728762196907 -3.210026951913137e-16)
(1.00760928502673 0.002399471546143218 -3.68244112552151e-16)
(1.007481120329286 0.002302499279677547 -4.353814456160721e-16)
(1.00734836413065 0.002197061164861961 -5.060324777024355e-16)
(1.007216317085186 0.002082238782993689 -5.860576311210267e-16)
(1.007083083033099 0.001958153919563047 -6.220468849742242e-16)
(1.006948589741985 0.001825150004256463 -7.844249943394356e-16)
(1.00681378020403 0.001681248277279635 -7.458047106794953e-16)
(1.006680030928288 0.001525789209840672 -8.192852712987989e-16)
(1.006548123324735 0.001360268345060689 -7.148099072189086e-16)
(1.006419541947178 0.001181993585901763 -6.474490388304895e-16)
(1.006300349533058 0.0009887549930133099 -3.894564083098534e-16)
(1.006197793675229 0.0007827560330510895 -2.254690584334875e-16)
(1.006115322857441 0.0005613390556546062 6.889522579010497e-17)
(1.006059019128354 0.0003217573190050494 3.665467137944583e-16)
(1.006036868361564 6.228606197762609e-05 5.141837134825514e-16)
(1.006057465675189 -0.0002182410783599788 5.503356099555076e-16)
(1.006132616268082 -0.0004872911760889373 4.187680610473805e-16)
(1.006300643284704 -0.001033632877810086 2.64149225452284e-16)
(1.006044892894922 -0.0006549068078547029 1.794662534739545e-16)
(0.9789245300045679 -0.002471081473249051 2.458259040640692e-17)
(0.02026469280603314 5.993536783240022e-09 4.353041078186398e-19)
(0.06093832378371666 9.939678921722838e-08 1.309038572761332e-18)
(0.1020336152748143 2.925233718284009e-07 2.191833204590675e-18)
(0.1437411816877049 5.928727606262176e-07 3.087731950440114e-18)
(0.1859586231311675 1.005221160392918e-06 3.994457969181837e-18)
(0.2279523993781979 1.534829573893075e-06 4.896147033441569e-18)
(0.2681894811306864 2.179534083747663e-06 5.759751339351388e-18)
(0.3048976527010627 2.926038262415442e-06 6.547133721190121e-18)
(0.3370792846915383 3.754720927863288e-06 7.236866945451895e-18)
(0.3650163471294522 4.661465093935681e-06 7.835023860385517e-18)
(0.3895989925698752 5.652639516211093e-06 8.360710250082336e-18)
(0.411498960167894 6.736449624438461e-06 8.828337002982051e-18)
(0.4311433295102871 7.915776172018254e-06 9.247042421773775e-18)
(0.4488926032891389 9.198321949184454e-06 9.624638059729534e-18)
(0.4650578318455927 1.059383318585935e-05 9.967844643014448e-18)
(0.4799029589304774 1.211348038703307e-05 1.02827378847866e-17)
(0.4936485409924848 1.376987461045371e-05 1.057506552439753e-17)
(0.5064770459371272 1.55771147216325e-05 1.085909400653558e-17)
(0.5185385719456278 1.755090811915217e-05 1.112680473657208e-17)
(0.5299563117933537 1.970890134810979e-05 1.137987901087738e-17)
(0.540831603252362 2.207118606996478e-05 1.162035863574025e-17)