# p  FACE_DATA 408
# x  y  z  p
-6.199677128280001 -1.770290296476768e-56 0.05000000000000001 0.06069764841189331
-5.841766953645001 -1.620777482505332e-56 0.05 0.05455659713473321
-5.524972915010096 -2.153451798963706e-56 0.04999999999999998 0.05298174534491873
-5.241612003280149 -2.806888429329737e-56 0.05000000000000004 0.05204321587113353
-4.985767548250054 -3.597998572497487e-56 0.05 0.05105635161147506
-4.752805322735 -4.545016179348241e-56 0.05 0.05004178152449921
-4.53904025346 -5.667670148769636e-56 0.05 0.04910254592703137
-4.341501680235 3.019604355207672e-35 0.05000000000000013 0.04826400329209969
-4.157764707255 3.019604355207663e-35 0.04999999999999988 0.04750899876578867
-3.985826857730002 -1.03145154530565e-55 0.05 0.04681766829553587
-3.824016391920046 -1.237659219877408e-55 0.05 0.04617774043448662
-3.670923143810046 -1.507284866303036e-55 0.05000000000000002 0.04558211610464977
-3.525345624424999 2.205578569902081e-34 0.05 0.04502491274617311
-3.386250040705 2.205578569902079e-34 0.05 0.04450009065360162
-3.25273815166 -2.498644863967277e-55 0.05 0.04400184632435997
-3.124021750625005 -2.91230821696449e-55 0.05 0.04352530464134505
-2.999402162035005 3.953633768793206e-38 0.05 0.04306600212108423
-2.87825356182 3.953633768793197e-38 0.05 0.04261939992158225
-2.760009228985 -4.53028580120021e-55 0.05000000000000001 0.04218206970679132
-2.644150050030001 -5.229643766379906e-55 0.05 0.04174966639781333
-2.530194752495001 -6.03265836838796e-55 0.05 0.04131756056574701
-2.417691456119999 3.563335264800588e-36 0.05000000000000001 0.04088169568318917
-2.306210211524999 3.563335264800588e-36 0.05000000000000001 0.04043712538096846
-2.195336254565031 -9.286187911826707e-55 0.05 0.03997819041947193
-2.084511222945031 -1.075274432244255e-54 0.05 0.03949860299518931
-1.973238572265002 -1.253603615590974e-54 0.05 0.03899252165825295
-1.861714088965727 -1.479851478049804e-54 0.05000000000000001 0.03845757186329025
-1.750613447125725 -1.771943479681618e-54 0.05000000000000001 0.03789616874129748
-1.640602116375 -2.151224323748392e-54 0.05 0.03731562594090405
-1.532319604890001 -2.646599715593039e-54 0.05 0.03672868065402622
-1.426365001275001 -3.297228707210124e-54 0.05 0.03615413007530216
-1.32328448682 -4.156093102206986e-54 0.05000000000000001 0.03561639355134874
-1.223561328165 4.918634990749429e-37 0.05000000000000001 0.03514636671663012
-1.127608667490444 4.918634990749428e-37 0.05 0.03478256817249489
-1.035765224727444 -9.02944196028276e-54 0.05 0.03457131189576134
-0.9482938351416677 -1.23679896553832e-53 0.05 0.03456809850389574
-0.8653825831496679 -1.722052160233851e-53 0.05 0.034838133633296
-0.7871481707279998 -1.945825165729804e-53 0.05 0.03545594148526757
-0.7136410814689997 -2.161999689882548e-53 0.05 0.03650286340955991
-0.6448520682064998 -2.926572415264178e-53 0.05 0.03806357392649479
-0.580719498008499 -4.473472796240401e-53 0.05 0.04022150276235999
-0.5211371248554948 -6.630245471634831e-53 0.05000000000000001 0.04305286169008339
-0.4659619178954952 -9.309620656932148e-53 0.05 0.04662165866582382
-0.4150216425154998 -1.322213641701272e-52 0.05 0.05097622728665687
-0.3681219644690001 -1.901439018391889e-52 0.05 0.05614699827545948
-0.3250529175284996 -2.772200667033447e-52 0.05 0.06214427769701945
-0.2855946382159995 -4.231750636661588e-52 0.05000000000000001 0.06895761423861281
-0.2495223245116395 -6.632001923048272e-52 0.04999999999999964 0.07655485144088332
-0.2166104180172277 -1.026396163662185e-51 0.0500000000000004 0.08488435669683431
-0.1866360409327575 -1.603449122384411e-51 0.05000000000000002 0.09387347506602502
-0.1593817414320572 -2.588392915718167e-51 0.05 0.1034349654253861
-0.1346376148218527 -3.319567529150036e-51 0.05000000000000001 0.1134515800556864
-0.1122028748439547 -4.459689107849521e-51 0.05 0.1238188345248446
-0.09188695127803723 -7.111362713045976e-51 0.05 0.1343429516763402
-0.07351018789464646 -1.150184857367324e-50 0.05 0.1449699038857864
-0.05690421013014887 -1.892078802238458e-50 0.05 0.1552239195996543
-0.04191202556414967 -2.17946245410219e-50 0.05000000000000002 0.1654576094961897
-0.02838791317684984 -4.941883046670214e-50 0.05000000000000001 0.1739262395054496
-0.01619715001894997 -6.304463334994402e-49 0.05 0.1835113351968894
-0.005215616759269629 -3.102847748977188e-47 0.05000000000000001 0.1866402034537927
0.004984628231944234 0.000650124296505 0.05 0.1982604181560497
0.01498983499070493 0.002474000165089999 0.05000000000000001 0.1962152177973958
0.02495961609579119 0.005356219880115 0.05000000000000002 0.2002515496022183
0.0348083070480501 0.009235386083779999 0.05 0.1973910112853747
0.04451026872340021 0.0139465669205 0.05 0.1919947446245669
0.05409340052950008 0.0192992444897 0.05 0.1796892832593815
0.06362293376495012 0.0251032013764 0.05000000000000001 0.1600647602959484
0.07318440262449996 0.03117835265225 0.05000000000000001 0.1315655311875015
0.08286925816765031 0.0373558425021 0.05 0.09427028588005516
0.09276689976555134 0.04347115580925 0.05 0.04919036937239583
0.1029647109755037 0.04934604078014999 0.05 -0.0007850746133585951
0.1135058636510092 0.05485286916295001 0.05 -0.04271355483650306
0.1243531860560217 0.05999909950715 0.05 -0.07241067625777702
0.135441092700049 0.06485786772810001 0.05000000000000001 -0.1004625556338498
0.1467171751646037 0.06949258762765001 0.05000000000000009 -0.1260445705975812
0.1581428065557089 0.07394550128175 0.04999999999999993 -0.1534597625573814
0.1697056945154021 0.07819497429705 0.05 -0.1858111300828524
0.1814045373222452 0.08218582275149999 0.05 -0.2126309793461504
0.1932218094903342 0.08590334886955001 0.05 -0.2319296560076088
0.2051296609833137 0.08936458319705 0.05 -0.2484243090559548
0.217101699999397 0.09258683191969999 0.05 -0.2622499475505066
0.2291130858063905 0.09558732069845 0.05 -0.2732175420312085
0.2411395099304548 0.09838675535050001 0.05 -0.282176198463007
0.2531581926235 0.1010051694165 0.05 -0.2902029439035389
0.265148650843 0.103457597716 0.05 -0.2976588441783122
0.2770922138729998 0.1057550010535 0.05 -0.3044615282397887
0.2889713127765001 0.107907001951 0.05000000000000013 -0.3106577082452965
0.3007691609085 0.1099234323915 0.04999999999999989 -0.316408428029352
0.3124699004924995 0.1118134923955 0.04999999999999993 -0.3221494681197219
0.3240589922324997 0.1135831474615 0.05000000000000087 -0.3281363152053711
0.3355231955479997 0.1152347288385 0.0499999999999992 -0.3341345329256296
0.3468501498114998 0.1167693493625 0.05 -0.3398244252210149
0.3580280966729998 0.1181889197785 0.05 -0.3451165882631927
0.3690459216129997 0.1194961773735 0.05000000000000001 -0.3500826364778985
0.3798932709134997 0.1206940507785 0.05 -0.3547144107995065
0.3905605893499996 0.121785482892 0.05000000000000001 -0.3589976685349274
0.401039070388 0.1227740654205 0.0500000000000001 -0.3628168647992168
0.4113206900105003 0.123663832921 0.04999999999999992 -0.3663885801486616
0.421398269641 0.12445864703 0.05 -0.3696410033729751
0.4312654779225 0.125161944243 0.05 -0.3726809163698512
0.4409167982214999 0.125776943995 0.05 -0.3753081549007352
0.4503474432275 0.126307764631 0.05 -0.3775286175190893
0.4595533833380002 0.1267588021975 0.05000000000000001 -0.3795711367097134
0.4685314297430002 0.1271324418885 0.05000000000000002 -0.3815707615967989
0.4772791175665002 0.1274304966415 0.05000000000000001 -0.3828232028818001
0.4857945533219998 0.1276578823225 0.05 -0.3832655016464576
0.4940764914679997 0.1278211196335 0.05000000000000001 -0.3836219304225603
0.5021243971944995 0.1279249585275 0.05 -0.3840312470206956
0.5099383701799997 0.1279722348825 0.05 -0.3842621268064207
0.5175190604874998 0.127965412792 0.05 -0.3841029327567805
0.5248676350579998 0.127908039663 0.05 -0.3834503980833732
0.5319857691329999 0.12780482143 0.05 -0.3825351212146063
0.5388755937885 0.1276595276705 0.05 -0.3817244559965765
0.5455396051649996 0.1274736281615 0.05 -0.3808189191792439
0.5519806574639996 0.1272485901065 0.05 -0.3792303117534349
0.5582020304095 0.126988439036 0.05000000000000001 -0.3770133255999385
0.5642073631170005 0.1266978713965 0.05 -0.3748882072382234
0.5700004493935004 0.1263787059575 0.05 -0.3730166423391163
0.5755851758355004 0.1260304212725 0.05000000000000001 -0.3707090171253244
0.5809656761405004 0.125653739803 0.05 -0.3674435105792793
0.5861464210650007 0.1252518265205 0.05000000000000001 -0.3634905205173274
0.5911321036110005 0.12482840891 0.05000000000000001 -0.3592421144600989
0.5959275198010001 0.1243864974475 0.05 -0.354700469509074
0.600537529617 0.123928422739 0.05 -0.3498776744840612
0.6049670489815002 0.1234561363475 0.05000000000000001 -0.3447329362433744
0.6092210724855003 0.122971670584 0.05000000000000001 -0.3392055454983084
0.6133046228305001 0.122476867682 0.05 -0.3335006822251705
0.6172226775465003 0.12197296688 0.05 -0.3274794215532615
0.6209800302029999 0.121459852469 0.05 -0.3213382488887531
0.62458133592 0.12093669611 0.05 -0.3143974944974458
0.6280312956454999 0.1204034504175 0.05 -0.3066811287985879
0.6313347640235002 0.119861401074 0.05 -0.2980120420341495
0.6344968123680003 0.1193133306225 0.05 -0.2886767210827938
0.637522613852 0.1187626347535 0.05 -0.278971640546132
0.6404172906375002 0.11821244768 0.05 -0.2691895554550069
0.6431853636155 0.117663007212 0.05 -0.2595632596601822
0.6458299100325 0.117108143391 0.04999999999999965 -0.2503468298504041
0.6483530014750001 0.116538586868 0.05000000000000036 -0.2391551797915271
0.6507565369045 0.115946749381 0.05000000000000001 -0.2277402397927516
0.6530428059585001 0.1153287743385 0.05 -0.2130571232595561
0.6552411065430003 0.114664511668 0.05 -0.2036292823320698
0.657403313374 0.1139489530125 0.05 -0.1883515536599136
0.6595440982245004 0.113172824724 0.05000000000000001 -0.1829377606809684
0.6616543113090004 0.1123169590505 0.05000000000000001 -0.1755576954047499
0.6637315088855003 0.1113839593165 0.05 -0.1723498436143176
0.6657702102740002 0.1103697151375 0.05 -0.1692097388109505
0.667766757488 0.1092746552405 0.05 -0.1677213142641339
0.6697226334865001 0.1081081019005 0.05 -0.1663412113779137
0.6716427213760002 0.106883191143 0.05000000000000001 -0.1657011938611
0.6735315887085001 0.1056104175955 0.05 -0.1651460913563076
0.6753924238924999 0.1042968060795 0.05 -0.1648643933554179
0.6772280143150003 0.1029479441625 0.05 -0.1645977215953032
0.6790413578645007 0.101569121764 0.05000000000000001 -0.1644328639044409
0.6808352171090004 0.10016484892945 0.05 -0.1642819596347805
0.6826125431064999 0.09873950390380001 0.04999999999999994 -0.1641744294765448
0.6843763723494994 0.09729728448955002 0.05000000000000007 -0.1640872658379775
0.6861295665739999 0.09584194181709997 0.05 -0.1640197502353986
0.6878752202565003 0.09437734204935001 0.04999999999999966 -0.1639742983302725
0.6896156221749998 0.09290627960580002 0.05000000000000035 -0.1639433320514937
0.6913518474884994 0.09143005320875 0.04999999999999999 -0.16392442792619
0.6930848069234999 0.08994974418730002 0.05000000000000001 -0.1639148762886762
0.6948159685650003 0.08846706926004999 0.05 -0.1639128398178654
0.6965479688665001 0.08698509898109999 0.05 -0.1639224966787741
0.6982840580074997 0.0855076355043 0.05 -0.1639466089969962
0.7000263361159997 0.0840371715334 0.05000000000000001 -0.1639841918727993
0.7017748511845004 0.08257380343345001 0.05 -0.1640311238468435
0.7035282252639998 0.08111591737334997 0.04999999999999998 -0.1640824971458923
0.7052849101374996 0.07966166549259997 0.05000000000000003 -0.1641359659823226
0.7070436944859996 0.07820958308489998 0.05 -0.1641902982355839
0.7088038634584999 0.07675879497879998 0.05000000000000001 -0.1642375093400152
0.710566332081 0.075310404581 0.05 -0.1642892162626656
0.7123327171204995 0.07386638023864998 0.04999999999999999 -0.1643442067758623
0.7141040067579998 0.07242794790525001 0.04999999999999965 -0.1643926938742015
0.7158820780589997 0.0709974682466 0.04999999999999972 -0.1644580601848498
0.7176684679405001 0.06957692581854998 0.05000000000000064 -0.1645195778663453
0.7194640268915004 0.06816751375635 0.05000000000000029 -0.1645915552064997
0.7212698693615001 0.06677080212205 0.04999999999999972 -0.1646730549691688
0.7230860540255 0.06538703709054999 0.05000000000000001 -0.1647560812856931
0.7249121528170001 0.06401583513665 0.05000000000000001 -0.164846653136563
0.7267477269805006 0.06265677472459999 0.05000000000000002 -0.1649341301741519
0.7285925185100005 0.06130966710525001 0.05000000000000002 -0.1650254522563001
0.7304465161280002 0.05997464959934999 0.05 -0.1651174509066715
0.7323093458700005 0.0586513518156 0.04999999999999999 -0.1652071088334884
0.7341809792190002 0.0573398883524 0.05000000000000002 -0.1652863223866078
0.7360624659025 0.0560419370663 0.05000000000000302 -0.1653839211961171
0.7379542475475002 0.05475833491104999 0.04999999999999701 -0.1654696931881049
0.7398563365580004 0.05348934074064999 0.04999999999999998 -0.1655587772835775
0.7417694324739998 0.05223625912550001 0.05 -0.1656578850399613
0.7436936400309997 0.05099952815289999 0.05 -0.1657491178443868
0.7456288995499998 0.04977936423650001 0.05000000000000001 -0.1658493037399805
0.74757529892 0.04857621600440001 0.05 -0.1659448559004758
0.7495328370405001 0.04739041614075001 0.05000000000000002 -0.1660429202727554
0.7515016017880005 0.04622245676085 0.05000000000000001 -0.1661457843692729
0.7534814207705002 0.0450724044298 0.05 -0.1662405076063504
0.7554723219755003 0.04394069032665 0.05 -0.1663417715410694
0.7574743848684999 0.04282784208070001 0.05 -0.166446603512739
0.7594872815664997 0.0417336742321 0.05000000000000004 -0.1665394072931578
0.7615110766405001 0.04065873497615001 0.04999999999999998 -0.166642506331912
0.7635459190695004 0.03960374280455001 0.05 -0.1667488389098079
0.7655914220255003 0.0385684109312 0.05 -0.1668471178480554
0.7676473243625004 0.03755268941775 0.05 -0.1669513480240969
0.7697135837544997 0.03655696300124999 0.05 -0.1670463651141403
0.77179029527 0.03558193783305 0.04999999999999999 -0.1671554807753313
0.7738773988725003 0.03462801223355001 0.05000000000000002 -0.167265179438578
0.7759744457525 0.03369474440785001 0.05000000000000001 -0.1673737286133771
0.7780810664150004 0.03278183889165003 0.05 -0.1674821197005963
0.78019704305 0.03188932292789999 0.05 -0.1675916396978716
0.7823221505739999 0.03101719849765 0.05000000000000001 -0.1677041754534986
0.7844560716075 0.03016522813985001 0.05 -0.167816602029866
0.7865984214700003 0.02933297664485 0.05000000000000001 -0.1679290831254528
0.7887488166960002 0.02851996895799999 0.05 -0.1680383372838462
0.7909068707959999 0.0277256739593 0.05000000000000001 -0.1681485848830812
0.7930721921014999 0.02694949718585 0.04999999999999999 -0.1682446390458072
0.7952445708874996 0.0261913195438 0.05 -0.1683448431351209
0.7974239025135 0.02545130583115001 0.05000000000000001 -0.1684422614200806
0.7996099661955 0.02472927879469999 0.05 -0.1685422854541891
0.8018025000324995 0.024024915325 0.05000000000000001 -0.1686340136521468
0.8040012958529995 0.02333803380759999 0.05 -0.1687346906844941
0.8062060857959994 0.0226682286627 0.05 -0.1688278064685838
0.808416562567 0.02201493253974999 0.05 -0.1689169502429523
0.8106324933375002 0.02137777852194999 0.05 -0.1690131643119218
0.8128535181804998 0.0207559029622 0.05 -0.169095520453143
0.8150792454929996 0.0201482675157 0.05000000000000001 -0.169166389014046
0.8173095056829995 0.0195545852866 0.04999999999999612 -0.1692234739001323
0.8195442795785002 0.0189751162048 0.05000000000000389 -0.16929268125629
0.8217834321310002 0.01840966975389999 0.05 -0.1693481436366541
0.8240267348000002 0.01785767121659999 0.04999999999999999 -0.1694036354426812
0.826274041879 0.0173188424891 0.05 -0.1694433207416783
0.8285252627649998 0.0167931131495 0.05 -0.1695010507601393
0.8307801805914996 0.01627984063945 0.05 -0.1695371931821306
0.8330385750609997 0.015778336125 0.05 -0.1695588010394948
0.8353003986759997 0.01528864325229999 0.05000000000000001 -0.1696045072973485
0.8375654441710002 0.01481003517775001 0.05 -0.1696166594988179
0.8398334852355001 0.0143416651224 0.05 -0.1696231949444549
0.8421044345034995 0.0138832977753 0.05000000000000001 -0.1696382988896092
0.8443780829514996 0.0134340585689 0.05 -0.1696109452830458
0.8466543157384999 0.0129935213911 0.05 -0.1695839403266454
0.8489331304950004 0.01256180862455 0.05 -0.1695587005630963
0.8512143973715005 0.0121383619413 0.05 -0.169496729691112
0.8534980640470001 0.01172302708495 0.05000000000000001 -0.169440469907139
0.8557841323799997 0.0113159304976 0.05 -0.169378020677221
0.8580725027609996 0.01091662627125 0.05 -0.1692931020254943
0.8603631170914997 0.0105248892373 0.05000000000000001 -0.1692047491600328
0.8626559558170003 0.010140705231595 0.05 -0.1691055568258217
0.8649509638630009 0.009763841642255 0.05 -0.1689985018807836
0.8672480749810003 0.009393981725745 0.05000000000000315 -0.1688760587264916
0.8695472360589998 0.009030876001934999 0.04999999999999687 -0.1687429788950948
0.8718484026379998 0.008674312432575002 0.05 -0.1686000415236114
0.8741515097960003 0.008323930074100006 0.05 -0.1684402215519258
0.8764564866705006 0.007979311843514997 0.05 -0.168263063169357
0.8787632926100001 0.007640223389389998 0.05 -0.1680608042833821
0.8810719287089999 0.007306705454425 0.05000000000000002 -0.1678551676271206
0.8833823747765001 0.006978648181244997 0.05 -0.1676285127060077
0.885694584679 0.006655753190235001 0.05 -0.1673764015310376
0.8880085590280001 0.006338047922060002 0.05000000000000002 -0.1671097990428753
0.8903243296705001 0.006025791010584998 0.05 -0.166823044917889
0.8926419295295001 0.005719262982080003 0.05 -0.1665327586744754
0.894961370319 0.005418595432645 0.05 -0.1662189783981012
0.897282659628 0.005123898809525002 0.05000000000000001 -0.1658963850099129
0.8996058166475005 0.004835381589855001 0.05000000000000001 -0.1655583954721135
0.9019308405080003 0.004553099979725001 0.05 -0.1652135043828523
0.9042576994649999 0.004276853159515 0.05 -0.1648403188537624
0.9065863723679998 0.004006522247784995 0.05000000000000432 -0.1644415644332894
0.9089168821900002 0.003742369358659995 0.0499999999999957 -0.1640294687164993
0.9112492673494997 0.003484812123329997 0.05 -0.1635872277123105
0.9135835831659994 0.003234460843345001 0.05 -0.1631499257524242
0.9159198695309996 0.002991829606820001 0.05 -0.162688153227106
0.9182581570539999 0.002757397545525002 0.05 -0.16221472683405
0.9205985015379998 0.002531952698750002 0.05 -0.1617470915769471
0.9229409218954998 0.002315977488074998 0.05000000000000001 -0.1612736725461408
0.925285397132 0.002109572991655 0.05000000000000002 -0.1607794539847257
0.9276319345350003 0.00191320048961 0.05 -0.1602741182896211
0.9299805638220006 0.00172767490034 0.05000000000000001 -0.1597892792549044
0.9323312699495008 0.001553340179535001 0.05 -0.1592848249217085
0.9346840168910001 0.001390327937335001 0.05 -0.1587798985420652
0.9370387882550004 0.001239107756285 0.05 -0.1582672410469258
0.9393955675104999 0.001100259410920001 0.05 -0.1577707078972676
0.9417543090615001 0.000973952371799999 0.05 -0.1572838375556174
0.9441149373385004 0.0008598167828175008 0.05000000000000001 -0.1567661337130372
0.94647739603 0.0007578350968285 0.05000000000000001 -0.1562677143368136
0.9488416360929997 0.0006680967845340002 0.05 -0.1557641570786381
0.9512075896600003 0.0005901756512729997 0.05 -0.1552636698290263
0.9535751911305002 0.0005235204025705 0.05 -0.1547401487761131
0.9559443884610002 0.0004678319103404997 0.05000000000000001 -0.1542312570799385
0.9583151318463734 0.0004226114038649997 0.05 -0.1537240577444875
0.96068736691725 0.0003866365378025004 0.05000000000000001 -0.1532001155437386
0.9630610461883005 0.0003581136067694998 0.05 -0.1526792503342182
0.9654361321449361 0.0003345389461170001 0.05000000000000001 -0.1520728502004298
0.9678126019686506 0.0003134066880180001 0.05 -0.1514446731853315
0.9701904440964373 0.0002925642877440001 0.05 -0.1506848590008144
0.9725696590772913 0.0002710008838005001 0.05000000000000002 -0.1498888563240562
0.9749502589202063 0.0002489953303805001 0.05000000000000001 -0.1490462650638852
0.9773322566041784 0.0002269151917819998 0.05 -0.1481689908283118
0.9797156656397022 0.0002051839441120001 0.05 -0.1472952279583629
0.9821004936287734 0.00018357764653 0.05 -0.1463918521841463
0.984486740625389 0.0001610744221329998 0.05000000000000001 -0.1454432816858019
0.9868744035835435 0.0001364675391544996 0.05 -0.1444592737552885
0.989263474979734 0.0001084276971785 0.05 -0.1433650127910032
0.9916539636619581 7.717415161219986e-05 0.05000000000000348 -0.1421846149155779
0.9940459197662119 4.603636350784988e-05 0.04999999999999652 -0.1410298123196114
0.9964394098179934 2.012308392756517e-05 0.05 -0.1399108649336505
0.9988344687727994 4.57269653891493e-06 0.05000000000000001 -0.1389872688475311
1.001231319971127 3.340974161683565e-46 0.05 -0.1382485121256285
1.003631546220975 7.750082138688297e-48 0.05 -0.1372204483233
1.006038885810841 6.555656008515638e-49 0.05 -0.1362066441495003
1.008458096595723 4.7614071822959e-49 0.05 -0.1351072870886123
1.010893959880618 4.212971753347228e-35 0.05000000000000001 -0.1339985089725399
1.013351289880526 4.212971753346965e-35 0.05 -0.1328412758085069
1.015834943250446 6.247585057007485e-50 0.05000000000000001 -0.1316622469933885
1.018349828665375 4.514465165650423e-50 0.05000000000000001 -0.1304445009910829
1.020900916525313 3.524731043060991e-50 0.05 -0.129196746497366
1.023493248780261 4.887430541335527e-42 0.05 -0.1279112639694511
1.026131948895215 4.887430536780486e-42 0.05 -0.126589630687676
1.028822231975175 2.08171227321576e-50 0.0500000000000034 -0.1252274163713464
1.031569415075142 1.802039927298395e-50 0.04999999999999667 -0.1238235338965805
1.034378927710113 1.57022107074507e-50 0.05 -0.1223745108271251
1.03725632258009 1.420215800775596e-50 0.05 -0.1208781418304912
1.040207286545071 1.314166532451488e-50 0.05000000000000001 -0.1193312304125277
1.043237651865053 1.167153830619499e-50 0.05 -0.1177310537743163
1.04635340773504 1.012282698216123e-50 0.05 -0.1160744160562435
1.049560712110031 8.8362047155545e-51 0.05000000000000001 -0.1143583756303894
1.052865903880022 7.850990099100119e-51 0.05000000000000001 -0.1125795983817862
1.056275515405016 6.782096079178141e-51 0.05 -0.1107351887337963
1.059796285415011 5.758173336704554e-51 0.05 -0.1088214482099514
1.063435172330008 5.089930540300197e-51 0.05 -0.1068359918827732
1.067199368020004 4.487644550704024e-51 0.05 -0.104774271345131
1.071096312010003 3.946752918089737e-51 0.05000000000000001 -0.1026350305249165
1.075133706190001 3.462480352381012e-51 0.05000000000000001 -0.1004129305324392
1.079319530045001 3.030063093257882e-51 0.05 -0.09810632246790039
1.0836620564 2.6448855518304e-51 0.05000000000000002 -0.09571323672296379
1.088169867785 2.302560655059942e-51 0.05 -0.09322841786105124
1.092851873409999 1.998973797613505e-51 0.05 -0.09065112149796412
1.097717326755 1.803734263287798e-33 0.05000000000000001 -0.08797841962344885
1.10277584386 1.803734263287771e-33 0.05 -0.08520847885350132
1.108037422345 1.289724908508788e-51 0.05 -0.08234131326856683
1.11351246116 1.445221737802393e-51 0.05000000000000001 -0.07937312517042398
1.11921178112 1.559196749856948e-51 0.05000000000000001 -0.0763095993761802
1.12514664632067 1.300859228034842e-51 0.05000000000000001 -0.0731418985892183
1.13132878638594 1.081932013827977e-51 0.05 -0.06988732306886322
1.13777041965027 9.013960678328829e-52 0.05 -0.06652769231480846
1.14448427731 7.490579711090687e-52 0.05 -0.06309374960022632
1.151483628575 6.159210081879529e-52 0.05 -0.05956730541172094
1.158782306915 7.991412496190244e-34 0.05000000000000001 -0.05597081154264374
1.166394737385 7.991412496190398e-34 0.05 -0.05230145383107522
1.174335965135 3.352951588159582e-52 0.05 -0.04857500993760241
1.182621685145001 2.679234412950748e-52 0.05000000000000001 -0.04479661739112262
1.191268273245004 2.086457687942997e-52 0.05 -0.0409809447151867
1.20029281849501 1.575588342927691e-52 0.05 -0.03713892170462132
1.209713156935027 1.12494214698006e-52 0.05 -0.03328700188744944
1.219547906845071 7.597762694785113e-53 0.05 -0.02944084899619151
1.229816505550171 5.056375694591424e-53 0.05000000000000001 -0.0256195744080396
1.240539247835392 2.988036449602348e-53 0.05000000000000068 -0.02184252534146161
1.251737326050865 1.47478037722868e-53 0.04999999999999936 -0.01813116152037483
1.263432871986836 2.92599120086797e-54 0.05 -0.01450741417030686
1.275649000638772 5.615549845434851e-28 0.05 -0.0109939520226254
1.288409855867532 5.615549845434884e-28 0.05 -0.007613554963699291
1.301740658115003 -7.952745611848993e-54 0.05000000000000001 -0.004388194547242985
1.31566775429 -1.350993826018275e-53 0.05 -0.001339644857467041
1.33021866981 -1.760409489893513e-53 0.05 0.001512854561636879
1.345422162985 -1.959535262670717e-53 0.05 0.004151976079048743
1.36130828188 -1.893859779633322e-53 0.05000000000000001 0.006562038686544158
1.377908423704999 4.272820786595066e-36 0.05 0.008729630639082725
1.39525539685 4.272820786595103e-36 0.05000000000000001 0.01064704222941395
1.413383485745 3.833228859669992e-35 0.05 0.01230905007054456
1.43232851861 3.833228859670008e-35 0.05 0.01371695906846882
1.452127938255 -2.088223989693076e-53 0.05000000000000002 0.01487736932090435
1.47282087611 -1.594399260663304e-53 0.05 0.01579690603573622
1.494448229535 -1.114399887648428e-53 0.05 0.01648666274998383
1.51705274267 -1.128685139002839e-53 0.05000000000000001 0.01696186722912161
1.54067909091 -1.154267577155954e-53 0.05 0.01724268589240988
1.565373969180001 -1.200022354574749e-53 0.05000000000000001 0.0173501041559436
1.591186184255001 -1.216950498229143e-53 0.05 0.01730310974600258
1.618166751205002 -1.210855163816524e-53 0.05000000000000001 0.01712587425702688
1.646368994210005 -1.186692561351e-53 0.05000000000000001 0.01684384870531968
1.675848651970013 -1.148073729276937e-53 0.05 0.01647620963733896
1.706663987855033 1.770651479605129e-30 0.05000000000000001 0.01604354918076821
1.738875905065084 1.770651479605129e-30 0.05 0.01556717584636518
1.772548066995077 1.285187220302859e-30 0.05 0.01506416783303591
1.807747023045025 1.285187220302859e-30 0.05000000000000001 0.01454569499725851
1.844542340160011 -8.498809873561565e-54 0.05 0.01402609789103338
1.883006740330003 -7.864631572248153e-54 0.05 0.01351589674246423
1.923216244305001 -4.853846242262313e-54 0.05000000000000001 0.01301712054759704
1.96525032184 -2.08255592002934e-54 0.05 0.01253688928206583
2.009192048765 -1.931151343435375e-54 0.05 0.01207788617936524
2.05512827118 -1.782765740930305e-54 0.05000000000000001 0.01163566323092437
2.10314977709 -1.639012527960066e-54 0.05 0.01121013856375871
2.153351475825 -1.501096231912535e-54 0.05 0.01079924365295576
2.205832585645 -1.369880416452211e-54 0.05 0.01039791923973465
2.260696829828073 -1.243199813170405e-54 0.05 0.01000140725144779
2.318052641638146 -1.124281723352493e-54 0.05 0.009606674529758941
2.378013378665074 3.862593042782785e-33 0.05 0.009209089527716622
2.440697546860001 3.862593042782785e-33 0.05 0.008802734609653922
2.506229034735071 -8.231154025850391e-55 0.05 0.008384525262697298
2.574737358236279 -7.379732381985642e-55 0.05 0.007951743339665952
2.646357916676208 -6.600159258597746e-55 0.05 0.007501580931862787
2.721232260385 -5.889007816274467e-55 0.05 0.007032768745728214
2.799508370464999 -5.242532143886317e-55 0.05000000000000001 0.006546011363167593
2.881340951215 -4.656787021944061e-55 0.05000000000000001 0.006041622652289593
2.966891735925 -4.127727385060727e-55 0.05000000000000001 0.005520706141493454
3.056329806515085 -3.65128983176387e-55 0.05000000000000001 0.004986295076326543
3.149831927715085 3.804823526955087e-38 0.05 0.004438962633856213
3.247582896405036 3.804823526955087e-38 0.05000000000000001 0.003884599091604545
3.349775906860036 -2.498086599263219e-55 0.05000000000000001 0.003316416180901666
3.456612932570001 -2.193161219858966e-55 0.05 0.002758614082303804
3.56830512542 -1.922122729109762e-55 0.05 0.002145761769240731
3.685073233015001 -1.681757902885889e-55 0.05000000000000001 0.001650677921079486
3.807148034954497 -1.469065508256915e-55 0.05000000000000001 0.0007314340105441319
3.934770798949498 -1.904995678316377e-55 0.05000000000000001 0.0008870909958412719
