/*--------------------------------*- C++ -*----------------------------------*\
| =========                 |                                                 |
| \\      /  F ield         | OpenFOAM: The Open Source CFD Toolbox           |
|  \\    /   O peration     | Version:  v1812                                 |
|   \\  /    A nd           | Web:      www.OpenFOAM.com                      |
|    \\/     M anipulation  |                                                 |
\*---------------------------------------------------------------------------*/
FoamFile
{
    version     2.0;
    format      ascii;
    class       volScalarField;
    location    "0.00000054";
    object      betaFieldInversion;
}
// * * * * * * * * * * * * * * * * * * * * * * * * * * * * * * * * * * * * * //

dimensions      [0 0 0 0 0 0 0];


internalField   nonuniform List<scalar> 
44064
(
1.498561895089187
1.498836849457152
1.501240123301792
1.510983485135223
1.537560403583313
1.593583211037973
1.686166770045683
1.800118849484872
1.899718731207959
1.958936443017598
1.973747905603623
1.984336054120559
1.986615846978172
1.971622733221873
1.958195118295134
1.931727139369102
1.897823456925533
1.863494137320095
1.837823702119046
1.822432092866533
1.813422751459132
1.806749456169915
1.800993071813287
1.796062093878578
1.792510840373538
1.790719884577292
1.786417119212646
1.781935919084736
1.777375785569694
1.77346635457293
1.767683929299833
1.760913776970166
1.753427152148926
1.745133084081442
1.737071130705557
1.729215321809041
1.720595803828561
1.721069526716258
1.728628038545961
1.731336412840184
1.736033377564034
1.72175726848199
1.686882248829592
1.648693439708696
1.609609660625639
1.577641699687276
1.552589820696119
1.533843312788826
1.520206040916902
1.510603258998552
1.504235274574727
1.50032326942367
1.498228533474758
1.497412825901547
1.497425030533869
1.497846556770177
1.498272550523056
1.498500962697506
1.498552056073364
1.498564159151567
1.498559769928027
1.49853613320347
1.49852762131237
1.498546592564568
1.498555298564618
1.49855285930197
1.498554567209271
1.498554924603892
1.498555165675464
1.498555340650723
1.498555303149215
1.4985553265769
1.498555388796866
1.498555476826942
1.498555608728061
1.498555766577557
1.498555884682071
1.498555928770863
1.498556052359406
1.498556190486009
1.498556389346463
1.498556360900051
1.498555999431267
1.498555792979842
1.498555749912901
1.498555605059296
1.49855563869304
1.498555603733787
1.498555576690888
1.498555579941699
1.498555538490928
1.498555524512644
1.498555479318836
1.498555403705392
1.498555376773643
1.498555349169707
1.498555319345998
1.498555300766646
1.49855529575122
1.49855530106974
1.498555280406999
1.498555458330679
1.498555029301946
1.498555497621332
1.498557743717676
1.498695270624671
1.502578853692162
0.01630338179031475
1.498558816476061
1.498708307825659
1.500057487169671
1.505708543455775
1.521666414352022
1.556851776862606
1.619515100615238
1.707180948359786
1.799218411241141
1.869855412106988
1.906208634652493
1.907350151658973
1.866833571298639
1.817488035938535
1.753788684808355
1.670546494583763
1.581074035328442
1.495792537590646
1.426288433823515
1.380380659352687
1.376534805941313
1.385144765673018
1.396324897505399
1.414519010818845
1.419211412021873
1.419798844705276
1.417438354324779
1.41393525084623
1.410324950279228
1.406017408168747
1.401423874962703
1.397593439466106
1.39562862327777
1.392864605455372
1.386310934186644
1.385056425975337
1.385224622377361
1.386200547097463
1.38831839825785
1.39267565823833
1.400966628510471
1.415767670172937
1.439937512970811
1.474167661031176
1.519654941363914
1.560014376066177
1.588134524252162
1.60047733334376
1.596178445584462
1.558077559727869
1.514644759706619
1.482016497750238
1.468270687404365
1.464154785871292
1.462566456230626
1.463888238376101
1.468689298810876
1.476390987356991
1.484844321943765
1.491694357202502
1.495872640818714
1.497844452305908
1.498493893453555
1.498566136484132
1.498527348486388
1.498525098145736
1.498554701593511
1.498553556639337
1.498555544652227
1.498554810665124
1.49855513755957
1.498555330261087
1.498555353901995
1.498555427307691
1.498555557080034
1.498555712140813
1.498555824114045
1.498555857588779
1.498556010498464
1.498556161938471
1.498556361991723
1.49855633966131
1.498555972649107
1.498555785885801
1.498555775207954
1.498555607109074
1.498555642303746
1.498555598619815
1.498555569068974
1.498555569287452
1.498555548314066
1.498555571994584
1.498555482948978
1.498555347301129
1.498555292620921
1.498555252049171
1.498555212949375
1.498555162719966
1.498555137030613
1.498555148633767
1.498555080287273
1.498555445245182
1.498554403494695
1.498556209510219
1.49856015720789
1.498601942806226
1.499136004101197
0.005487928274040887
1.49855852748985
1.498695432516113
1.499931239658396
1.505109815675838
1.519754494799207
1.552176209946735
1.610465263878562
1.693289491457886
1.781041133599377
1.845630092842548
1.87048446875692
1.851508062618306
1.787540269194654
1.666501743658809
1.573153189371956
1.469657079964689
1.392841917196586
1.326918634821837
1.293205061857553
1.279309291538171
1.268912271667757
1.273259718126452
1.282730088485336
1.28352669995033
1.282562042659741
1.280138404857332
1.273429846241185
1.270313900789869
1.265683225517663
1.264622605365308
1.261495514526902
1.260055401368638
1.262627403489807
1.259754240911425
1.258922333019806
1.256932248307864
1.25306338828235
1.249401108861971
1.245136476921648
1.240853424319875
1.236418174212631
1.226657471648874
1.224025594217188
1.225178362215952
1.227773277880023
1.232023204363007
1.242248218454004
1.263702639889645
1.300082126764436
1.347155557911232
1.37334573659187
1.385416775570613
1.3635863964038
1.32131337793832
1.27074980496226
1.286042492357713
1.324418567233173
1.364937043615938
1.394356278095905
1.422626034675919
1.448537077928054
1.471176594854434
1.487182813028481
1.49539467406696
1.498127406596275
1.498546947026344
1.49854651578246
1.498549179928279
1.498555278957558
1.498555402859398
1.498555286069545
1.498555330828111
1.498555368909506
1.498555412766094
1.498555493691447
1.498555600215059
1.498555682307323
1.498555691217839
1.498555768122551
1.498555864352855
1.498556046956432
1.49855607470268
1.49855580548229
1.49855564511898
1.498555625560122
1.498555499500327
1.49855552679547
1.498555503383638
1.498555488298015
1.498555498773139
1.498555467493725
1.498555489733168
1.49855544738841
1.498555357434125
1.498555313355799
1.498555263739636
1.498555232001386
1.498555197189297
1.498555154683965
1.498555137929362
1.49855500953637
1.498555454177244
1.498554155988762
1.498555132586949
1.498563660510572
1.49930615044399
1.498830663403438
0.05368499347411768
1.498557929644737
1.49866876171232
1.499669228918365
1.503862082546837
1.515726131526663
1.542052426904284
1.589723228413598
1.658606413099988
1.733455770282623
1.789049656209531
1.807148451639269
1.781962217073581
1.716743908615404
1.6122182371544
1.525056262144208
1.430459890749879
1.350713040225245
1.293380731205329
1.252501813518576
1.230965800032194
1.220270081253604
1.229436350500759
1.245177924841893
1.254724246872309
1.25949552825497
1.258876114339476
1.259157943337849
1.260092869041938
1.260263395988498
1.260122819444054
1.25883965440947
1.25788944454827
1.256907327147715
1.255664522469731
1.254043623741432
1.251998327888308
1.251268406174427
1.249021819109274
1.245349833279625
1.244907380211161
1.240559377487216
1.234362158293288
1.227796148246921
1.222753634843851
1.209940553852995
1.202219882190101
1.194446029736209
1.190217043499224
1.189046633258408
1.19057474081544
1.19916978908888
1.220304776635075
1.259791707853782
1.307718957183458
1.316606760079728
1.292320677086003
1.236386151114228
1.181038490627247
1.210875245268684
1.277258576844433
1.342263132892181
1.385809935643847
1.425845178911755
1.459030131199688
1.483116602127636
1.494911076120829
1.498167184718438
1.498552533221609
1.498551766828219
1.498555136349148
1.498555346130639
1.49855534097806
1.498555372228014
1.49855542726101
1.49855552836339
1.498555668459453
1.498555786456001
1.498555807892881
1.498555912612207
1.498556031053758
1.498556262804585
1.498556309577638
1.498555975430696
1.498555785101779
1.498555775232336
1.498555616871028
1.498555668727312
1.498555649938708
1.498555628204121
1.498555648997768
1.498555616950973
1.498555631179552
1.498555576454774
1.49855547276412
1.498555425204965
1.498555382700566
1.498555336247779
1.498555287673923
1.498555240815628
1.498555224494034
1.498555062770167
1.4985545072449
1.498553274022347
1.498553002547484
1.498648779662237
1.503118088093726
1.500585406944783
0.7453261840967824
1.498557529648297
1.498650917197655
1.499493980513905
1.503028764767648
1.513048639800963
1.535402511729503
1.576415861422804
1.637309769060801
1.706695225492095
1.762347812851137
1.785082375805085
1.7665448726871
1.706894466778217
1.602464933999125
1.531272450366786
1.464243251943859
1.389063357796405
1.346703421312766
1.313021282367094
1.278924052661834
1.258750559983821
1.255677111737787
1.262307497574093
1.26459914118253
1.264350214299742
1.264516498874795
1.262354248975105
1.265423533735334
1.269106297104477
1.270952874917736
1.271345945436109
1.272152634773603
1.2730214796741
1.273716378047122
1.274100685691181
1.274097978874468
1.273661599238903
1.272758782556949
1.271366891937207
1.269465152110278
1.267013549711668
1.263944806298197
1.260182083380477
1.257498151071141
1.252898578311647
1.250228810478709
1.243332338007722
1.230680885844511
1.221080015971759
1.21066621346175
1.203992911291668
1.201700980047739
1.203260792243743
1.21330159075566
1.237343666228591
1.274158618948272
1.309716597193259
1.293850664200347
1.23801204030262
1.176720262452945
1.188287896865401
1.261458325203094
1.336186301681121
1.383864300107817
1.428824022382646
1.465701405218756
1.48899067305197
1.497147493449078
1.4984991652327
1.498555109596789
1.49855489391316
1.498555291176002
1.498555367706556
1.498555437902376
1.498555570074801
1.498555761777745
1.498555936227364
1.498555977104491
1.498556113160883
1.498556258144398
1.498556574637815
1.498556657675968
1.498556218038644
1.498555967261231
1.498555967675032
1.498555759318937
1.498555854446009
1.498555848732221
1.498555822699143
1.498555864602534
1.498555831843756
1.498555856037208
1.498555798982576
1.498555669610492
1.49855559556563
1.498555517860702
1.498555427969182
1.498555337680213
1.498555405836291
1.498555115981607
1.49855420939523
1.498554591558124
1.498552777011991
1.498553924604341
1.498727236328951
1.503580290803991
1.503577108266858
0.06935739688680653
1.498557243116722
1.498638135069752
1.499368448176234
1.502431779507422
1.511129661520261
1.530630601474734
1.566843587688741
1.621981636647486
1.687814015714188
1.745383072320779
1.776078930175752
1.770502761955283
1.727301173834749
1.647189496515664
1.568829351524751
1.501739115561556
1.432681300766418
1.385752801212585
1.345755814239326
1.30805939291993
1.282121194195055
1.272101389495677
1.273700972177906
1.274011123133376
1.271484912075203
1.270256986547118
1.266522365835841
1.268129160151381
1.271216259093374
1.273364315257625
1.274198804445245
1.275777466509105
1.277730116589784
1.279804095269461
1.281852006674439
1.283785865791693
1.285554496109429
1.287132650884385
1.288514578836797
1.289704437231044
1.290685265189953
1.291394656172406
1.291736612749461
1.291586525691808
1.290806808249928
1.289312351391325
1.288676814565537
1.286682341698546
1.290891845595951
1.287574537065389
1.286229839421422
1.273524821935456
1.259676536171551
1.24451348182832
1.240034510855384
1.244763447901343
1.261350633589908
1.283492534772649
1.305746421971604
1.273461971836761
1.208967354557758
1.17028660925754
1.218555329342006
1.302119795028352
1.37080031747199
1.410895127771397
1.452630540201964
1.483630878918577
1.496236128388365
1.49845436130022
1.498555343958033
1.498555287611107
1.498555338921218
1.498555448270343
1.498555593214922
1.498555826168841
1.49855605816308
1.498556115459539
1.498556275809057
1.498556437242937
1.498556837405791
1.498556970679086
1.498556438655753
1.498556126651304
1.498556136971265
1.498555877071585
1.498556012878178
1.498556010901661
1.498555982942174
1.49855606402748
1.498556046131427
1.498556080376334
1.498555995132893
1.498555818495766
1.498555724309022
1.498555656550367
1.498555671334272
1.498555464312644
1.498554872586878
1.498554595425296
1.498554275391021
1.498555529327358
1.498551669474569
1.498570142092965
1.499055356910122
1.501093107763446
1.495087510943777
0.07636264927873192
1.498556959693526
1.498625491619023
1.499244254092551
1.501840522831857
1.509221583284858
1.525832858729589
1.55696364075219
1.605267542067614
1.664920269374684
1.720011062583403
1.752748127616538
1.752259409068036
1.715282969678207
1.640298043336337
1.559394830919991
1.504142617488971
1.45266325618561
1.399712416303018
1.368025522702579
1.334513744509483
1.307540724883039
1.294129359580681
1.292279424154314
1.290482997536782
1.284296154563781
1.281244613869865
1.279433299241724
1.2792517600165
1.281238605115988
1.282582133038535
1.282677171481146
1.283750378285149
1.285473928438148
1.287607928536887
1.289999661173371
1.292547038741194
1.295179325343553
1.297846829539945
1.300516048058053
1.303160119838877
1.305733148173169
1.308147146150654
1.310288215889163
1.312028943681087
1.313228193492665
1.313756834546772
1.313510094105652
1.312417545978545
1.310420559794264
1.311438511981931
1.309921548005968
1.300275624474237
1.298060064107808
1.292097720941662
1.284124937250787
1.276606376914898
1.269393701770166
1.276065582743145
1.288882826490614
1.297002430412119
1.294805442208276
1.228682340611219
1.161192339777881
1.176320125634062
1.28082815014628
1.361164756929939
1.403102136920353
1.446910702411651
1.481975200868215
1.496203417675692
1.498474503530398
1.498555382893689
1.498555346554836
1.498555433492725
1.498555607355579
1.498555870215974
1.498556132219072
1.498556186110456
1.498556362543428
1.498556526682377
1.498556981467105
1.498557153993357
1.498556555785674
1.498556195287095
1.498556210814705
1.498555918938882
1.498556089790486
1.498556095561337
1.49855605837173
1.498556124406934
1.498556082725641
1.498556111395621
1.498556071247132
1.498555972145692
1.49855594373431
1.49855576114327
1.498555257652387
1.498554896234663
1.498554649772254
1.498554519527602
1.498554364210669
1.498556330609612
1.498560315738265
1.498704387841962
1.499605722667493
1.498274247023264
1.487424878562528
0.07507493834498363
1.498556772993757
1.498617162779091
1.499162434449335
1.501450867622139
1.507962735173522
1.522658262714159
1.550384043666534
1.594011411675492
1.64929938954483
1.702693261762325
1.737630822056498
1.742881644599251
1.714257320787831
1.648840685088216
1.575861580704644
1.525885259527343
1.477484164100184
1.427012051173689
1.388207961649829
1.352981041261262
1.326059039762085
1.311584518408586
1.308386451603295
1.303746743519496
1.300099941096108
1.296508739251136
1.295275254030855
1.293095070356812
1.293646635196631
1.293974696411313
1.293067235267719
1.293249176525144
1.294253391502111
1.295876324758948
1.297989413070126
1.300503153166669
1.303348703478995
1.306469825550735
1.309820357109917
1.313357529543595
1.317006520779139
1.320633422202052
1.324076453964823
1.327173063462619
1.329760564674301
1.331690234015579
1.332855818712718
1.333190440773583
1.332646447795749
1.331190877694711
1.332602141360511
1.330113006393501
1.327360920339778
1.322534485747042
1.318596261494856
1.316506017690347
1.311982053965646
1.310236111004785
1.308045400570046
1.311256817523951
1.306924144020197
1.303428484811323
1.242284880655757
1.175979328093314
1.188104052643601
1.292402369035279
1.370371487160812
1.406646925644891
1.449169543442867
1.484539762406967
1.496992056414674
1.498520176124789
1.498554968099146
1.498555375299644
1.498555573170593
1.498555851204089
1.498556130896897
1.498556159519041
1.498556342795439
1.498556499258448
1.498556966094113
1.49855716075968
1.498556545764042
1.498556167541644
1.498556187983391
1.498555877646948
1.498556027737853
1.498556002777839
1.498555968372119
1.498556069010115
1.498556097526208
1.498556190240621
1.498556145741828
1.4985558545349
1.498555516924676
1.498555216582771
1.49855489056426
1.498554580694798
1.49855435231121
1.49855435717706
1.498554609274559
1.498560582740284
1.49857950226652
1.498949046002965
1.499712920890393
1.49809513515188
1.489964962182296
0.09956126966218794
1.498556642924022
1.498611360232902
1.49910543213208
1.50117941324057
1.507085845864113
1.520447335694014
1.545803066024115
1.586182746669646
1.638507037564642
1.691090143301691
1.728607456759392
1.739810645606018
1.719685739863272
1.663875972364113
1.602903163105342
1.532975367420215
1.483065491609186
1.436105945271964
1.389872223076573
1.349708891943328
1.324118456859665
1.31209075857988
1.312365962300601
1.313482037946672
1.312298847352885
1.309639768957196
1.309642742443568
1.307338037150289
1.307238930700475
1.306895061162017
1.30526679776986
1.304549026335747
1.304702231967499
1.305601871466539
1.307185561096884
1.309418817677573
1.31227391143999
1.315722194745318
1.319730840976399
1.32425533822004
1.329203311466061
1.334408068358525
1.339668396231093
1.344783885577141
1.349560122915816
1.353833251483237
1.357480530398121
1.360409709789148
1.362579534399332
1.36399615533754
1.364684547929788
1.364790160268156
1.368200287515103
1.374185928784522
1.382031026588018
1.37083925969141
1.3547067212544
1.346976403678193
1.34165524091011
1.334403800074801
1.328943125773822
1.31562010842532
1.304740718167182
1.251707425495889
1.189036394201882
1.210443578081926
1.319587715563458
1.386443276088139
1.41391017418453
1.457470028582344
1.489646233890595
1.497965806290569
1.498549787692539
1.498555376761075
1.498555567502182
1.498555824927385
1.498556089870837
1.498556095983936
1.49855627958693
1.498556420246118
1.498556858032617
1.498557044468581
1.498556444443407
1.498556069513991
1.498556091410178
1.49855581790643
1.498555988943847
1.498556010558237
1.498556007493146
1.498556096939545
1.498556037787863
1.498555925227493
1.498555701047771
1.498555397143495
1.498555138783725
1.498554870867907
1.498554600544932
1.498554371950962
1.498554285889255
1.498554556836734
1.498556817584646
1.498575176064877
1.498660591775342
1.499145607378589
1.499411910825321
1.497732584036382
1.49366710006395
0.1180199962673894
1.498556530199943
1.498606331416017
1.499056023478061
1.500943950206418
1.506323294834134
1.51851112966646
1.541725373141038
1.57897859968759
1.627929849426555
1.678277497991699
1.715734701767627
1.729160067249214
1.71311879124533
1.662943129013025
1.607056276145289
1.541361333586684
1.494075583577898
1.448874562703465
1.403760879246372
1.365021151008881
1.336878018204644
1.322560328435271
1.320927756667723
1.320552013402395
1.318059923496038
1.317181503189875
1.317617537184625
1.316413755949432
1.316623846820151
1.316564298318461
1.315097368947743
1.314417345162599
1.314524629644319
1.315323975525143
1.316784853338667
1.318911139431933
1.321719494258586
1.325223885315424
1.329430540275913
1.334324405907092
1.339829628015747
1.345778575013169
1.351955068517113
1.358141720812702
1.364130407847316
1.369742669588021
1.374842594212532
1.379367503112543
1.383317785700254
1.386729269134954
1.389677449712346
1.392255263253126
1.394493131122528
1.404934550234328
1.406437778153636
1.404900009670172
1.396386690568857
1.39092968077365
1.378985029447171
1.372757834624101
1.361251702987236
1.350872731777816
1.332747063094411
1.314517752051414
1.260157372890508
1.205812753831459
1.257287181561376
1.344743024417603
1.389253249776799
1.426318177417112
1.47073772726903
1.494602535896304
1.498418288230655
1.498555567438407
1.498555466421484
1.498555763303942
1.498556046806222
1.498556043254552
1.498556215852328
1.498556343568413
1.498556778717917
1.49855698720324
1.498556441606879
1.498556115153009
1.498556162078647
1.498555913331833
1.49855606443773
1.498556014038989
1.498555901894575
1.498555858830392
1.498555729888661
1.498555635044294
1.498555441142197
1.498555166842425
1.498554945722517
1.498554744856075
1.498554547847279
1.498554442533914
1.498554632848911
1.498556028561664
1.498565862348521
1.498608537497524
1.498779564055014
1.499229385760823
1.498919285541508
1.497120554766122
1.495475773917677
0.09800161971851291
1.498556439652385
1.498602291894658
1.499016333442241
1.50075479433638
1.50571054221617
1.516953732479988
1.538436373320882
1.573130767225426
1.619237890772682
1.667533304565255
1.704605458730672
1.719492954866552
1.706508015982221
1.660803527705966
1.609346680943788
1.547833295068944
1.50328467042615
1.460088114852637
1.416538923498752
1.379006655941878
1.351892682313134
1.338834313267581
1.335837257617842
1.334636617077934
1.332459146486464
1.332990979706171
1.334114673702427
1.33401195512695
1.334388327336729
1.334281437250205
1.332470093326468
1.331463105892976
1.331128089197315
1.331376726121012
1.332190969759922
1.333592259910467
1.335622589439939
1.338333115280223
1.341775718373324
1.345986991680959
1.350920699877072
1.356404616120438
1.362205754537057
1.36808885786174
1.373826790237244
1.379215943456238
1.384129331160162
1.388516188762054
1.392360884981702
1.395681826682913
1.398519209450929
1.400927633085785
1.402955182173523
1.406842100292341
1.412710825879019
1.41198514345222
1.410504443478738
1.406335039348945
1.403798437595984
1.402095778596194
1.390133130315282
1.37651065455763
1.357961011387734
1.334759713165943
1.30476665662453
1.244596202655138
1.207029006737708
1.291511745669784
1.378513824239077
1.408528465183706
1.444884946255923
1.484470332996563
1.497500195459989
1.498543136130139
1.498555699871478
1.498555892623738
1.498556160081409
1.498556148415297
1.498556333939912
1.498556456040212
1.498556893812733
1.498557101864989
1.498556514811473
1.498556140183987
1.498556124641058
1.498555798900937
1.498555887831183
1.498555805741989
1.498555679039354
1.49855566034342
1.498555555112131
1.498555452867923
1.498555274270683
1.498555031512786
1.498554835940077
1.498554669149974
1.498554618867597
1.49855482134443
1.498555781845319
1.498561232841407
1.49858533758584
1.498664938020539
1.498898905958894
1.499214962924569
1.498395952939034
1.496119281465756
1.495944540577897
0.1026485248733903
1.498556354015776
1.498598471450852
1.498978794169049
1.50057582547949
1.50513009964012
1.515473912575913
1.535291610637129
1.567481652988947
1.610733224141588
1.656933314853371
1.693769001612164
1.710781773170366
1.702325043106705
1.663662140332339
1.620054256088731
1.57057304803065
1.515863615466325
1.470077320385824
1.427529438754996
1.390706658980328
1.363768623219906
1.349812793531654
1.349352448708587
1.34961100043828
1.348102999569841
1.349481758415813
1.351344348905214
1.35234723280424
1.35253928520403
1.352500671279591
1.350542455079646
1.349270717413652
1.348578224332352
1.348382415618127
1.348660990093004
1.349430146671414
1.350728948409734
1.352608352257331
1.35512248655446
1.358310322745246
1.362144586701028
1.366488738909338
1.371144510018911
1.375904000031486
1.380567673720906
1.384975741224965
1.389007886599317
1.39258419429439
1.395673238174893
1.398283924959357
1.40045818588161
1.402260238907863
1.403738274128508
1.404778598593574
1.409605289945163
1.412418264292481
1.411695452446552
1.406830178615662
1.408124935450297
1.410460957629666
1.409575374953361
1.397842525534319
1.381020232047485
1.354441465320582
1.326478220294345
1.280417545664697
1.215874913471513
1.225871158534147
1.340317224894832
1.408675779542568
1.423616340412113
1.465558064428073
1.493731210099503
1.498406158424744
1.498555650172086
1.498555738982812
1.498556090185394
1.498556101036166
1.498556322736557
1.498556451093291
1.498556909391531
1.49855714459893
1.498556527221958
1.498556122259604
1.498556101508325
1.498555750968447
1.498555842798995
1.498555756706457
1.498555617682037
1.498555591214864
1.498555476424196
1.498555387012475
1.498555205332217
1.498554957516418
1.498554829869245
1.498554947507716
1.498555319745305
1.498556028868497
1.498558880141966
1.498573161752219
1.498615401080311
1.498727154026115
1.498972042926159
1.498917481108915
1.497529650322484
1.495744985411278
1.496955436313352
0.1108577483406394
1.498556288602175
1.498595553175591
1.498950118674614
1.500439100462768
1.504686569184323
1.514342745364282
1.532886972726252
1.563164620423358
1.604263333549114
1.649005421810311
1.68608039568937
1.705598297930131
1.702090441132533
1.674622203785351
1.620669259534968
1.56535276387224
1.504540117462486
1.462320559919951
1.424123575043797
1.39025879200928
1.363089718166899
1.346459804187468
1.343953533532028
1.350976484265563
1.353743003229856
1.35743393836473
1.360956970115934
1.363378711250877
1.363873675980972
1.364150550790678
1.362405458725463
1.361165631934699
1.360392334813551
1.360018327485271
1.360029050089014
1.360444301372235
1.361306429272108
1.362672182744688
1.36460719686157
1.367167982585874
1.370341655493462
1.373997309351215
1.377933017534711
1.381947129352659
1.385859095611111
1.389519392560688
1.392822607487336
1.395704043472715
1.39814067801385
1.400129921330935
1.401694135430746
1.402882735947896
1.403753570972121
1.404351174208071
1.404461979537174
1.41071039547638
1.410514167768431
1.409730201889122
1.408307578639358
1.411097848383307
1.4151412728069
1.412232003078421
1.39696395329908
1.372665437322904
1.33762874351905
1.302198671778685
1.252794709440213
1.215529925613369
1.292132820256325
1.382596474230855
1.411043155136787
1.442688256899622
1.48450908214595
1.497698927350748
1.498551719955295
1.498557577908594
1.49855697969825
1.498556419837026
1.498556297542301
1.498556212812447
1.498556596488346
1.498556819750829
1.498556154868695
1.498555740202785
1.49855575362277
1.498555406467939
1.4985555433255
1.498555485251724
1.498555358165402
1.498555362476435
1.498555270629175
1.49855518272125
1.498555036745445
1.498554983789721
1.498555459894689
1.498556103606918
1.498556424197984
1.498557790894461
1.498565862169245
1.498591227919029
1.498649253516906
1.498776287757221
1.498982404462644
1.498555536726425
1.496956320212727
1.496013226737445
1.49737145438754
0.1053483481719943
1.498556215371446
1.498592286151306
1.498918014122652
1.5002859639928
1.504188961088126
1.513067549187617
1.53014586936343
1.558130324519701
1.59638659104947
1.638561780217165
1.674293190409025
1.694210834960232
1.692923933922442
1.669315613840914
1.62074444547758
1.570382902910555
1.517477975383231
1.461104743133613
1.423876608730037
1.392604372299786
1.366797346571995
1.355418122935045
1.353656958992959
1.360695673394126
1.365426394443879
1.370174024088197
1.374550075506519
1.377544237854194
1.378279957031154
1.378621911214138
1.376788848434955
1.37525435448684
1.374071078289349
1.373192075438725
1.372611109810813
1.372351496003701
1.372457498717186
1.372987183863628
1.374006403352761
1.375575143610605
1.377700803266261
1.380289524082928
1.383185508399493
1.386222525757225
1.389241351955142
1.392113510299178
1.394749684287684
1.397100597337114
1.39914119254112
1.40086960056756
1.402303492472113
1.403486599187358
1.404472556167097
1.40530573769839
1.40596894026301
1.409871651503919
1.411854437955739
1.411030075102041
1.409129510782429
1.411944380104815
1.416902312799047
1.419814509160827
1.414064862587804
1.395121771527032
1.36325914414792
1.326280097873249
1.283389932487982
1.225270381626668
1.2218561327132
1.340678620214989
1.413692932188252
1.425133967033721
1.468587847144924
1.495119817031677
1.49849822157619
1.49856207999271
1.498560744165958
1.498559407384505
1.49855859886591
1.498557900826717
1.498557815428617
1.498557659729187
1.498556607796387
1.498555898508986
1.498555722860537
1.498555196030387
1.498555245904348
1.498555129231704
1.498554974576563
1.498554970005909
1.498554868450315
1.498554940140263
1.498555427194997
1.498555979072005
1.498556390356217
1.498556527837588
1.498557278123002
1.498562011386154
1.498578740665632
1.498612580983649
1.498683895321579
1.498809233250146
1.498927003975078
1.498556969194656
1.496537790164112
1.496349481114346
1.497230444872468
0.1000224664612914
1.498556136107465
1.498588748989874
1.498883251784535
1.500120080228771
1.503649067986203
1.511678006721741
1.527129990158373
1.552485733069555
1.587256388369558
1.625794267892624
1.658681245524635
1.677168851088852
1.676034367975298
1.654019192396301
1.608403689406586
1.560620647219663
1.50901098490701
1.452467614594884
1.411237970957231
1.385090348960297
1.366589512785998
1.357684585516753
1.366063370627057
1.368447663888178
1.373274632386351
1.378484612110817
1.383548203397122
1.386698251094247
1.387678262168098
1.38795607206596
1.386003882302946
1.384154064542889
1.382608517602861
1.38133672703922
1.380341279928523
1.379642349513803
1.379269100372807
1.379260420912199
1.379666252217119
1.38053746963873
1.381880472740056
1.383625396384243
1.385654827788241
1.387837424156738
1.390045203543314
1.39217592148697
1.394163977273076
1.395965578004444
1.397562827690422
1.398957065409401
1.400174510399489
1.401268674839777
1.402312081809105
1.403386133796816
1.404529996115471
1.40548377214273
1.411465184388055
1.412085794368097
1.412276342696978
1.412908602244931
1.416745051316062
1.421795529196469
1.419639911128184
1.405233770762596
1.379095361144999
1.338428500971375
1.296358678337278
1.250282368300723
1.219326991341695
1.305432319077023
1.394114413944181
1.412804119050507
1.449026359761231
1.48903229358796
1.49819754427871
1.498561299032892
1.498561860756666
1.49856092023626
1.498560286064292
1.49855957973635
1.498559450821604
1.498559180095762
1.498557854528155
1.498556889792381
1.498556518944365
1.498555760818317
1.498555681371198
1.498555422630484
1.498555115671799
1.498555088045224
1.498555378203966
1.498555898589582
1.498556283827327
1.498556474035036
1.498556740388038
1.498557517356412
1.498561007352898
1.498572434313951
1.498596681938436
1.498639516746521
1.498719828904426
1.498818110074681
1.498605928346673
1.497778848085917
1.496305669580922
1.497478581085312
1.497171903946783
0.07905187182900045
1.498556065439025
1.498585597193858
1.49885227656575
1.49997225419903
1.503167829719813
1.510438578068908