/*--------------------------------*- C++ -*----------------------------------*\
| =========                 |                                                 |
| \\      /  F ield         | OpenFOAM: The Open Source CFD Toolbox           |
|  \\    /   O peration     | Version:  v1812                                 |
|   \\  /    A nd           | Web:      www.OpenFOAM.com                      |
|    \\/     M anipulation  |                                                 |
\*---------------------------------------------------------------------------*/
FoamFile
{
    version     2.0;
    format      ascii;
    class       volScalarField;
    location    "0.00000054";
    object      k;
}
// * * * * * * * * * * * * * * * * * * * * * * * * * * * * * * * * * * * * * //

dimensions      [0 2 -2 0 0 0 0];


internalField   nonuniform List<scalar> 
44064
(
2.266109940204879e-10
6.228205859666714e-09
4.102758916488644e-08
1.445396850967318e-07
3.701024365426283e-07
7.853251014571582e-07
1.473794413091002e-06
2.536531829631901e-06
4.094109018714403e-06
6.291819316114042e-06
9.31058937387944e-06
1.338613891893577e-05
1.88416720986762e-05
2.613404979509199e-05
3.591304943343684e-05
4.910126083020717e-05
6.697073317542631e-05
9.118612202014187e-05
0.0001236934922940097
0.0001662866079962678
0.0002199093232306168
0.0002839831170951771
0.0003560595920979337
0.0004320266927213419
0.0005068555132294675
0.0005755903331872218
0.0006341651729477105
0.0006797274364748244
0.0007107306108898324
0.0007267619564042064
0.0007282701144284856
0.0007162271772582026
0.000691923301031791
0.0006568255727720987
0.0006124891904518684
0.0005605366952602764
0.0005026774233418833
0.0004408082911834268
0.0003774483364254389
0.0003155459092498313
0.0002575578121665939
0.0002051409972472838
0.0001592719734177638
0.0001203919764051124
8.852113102935227e-05
6.331857868892717e-05
4.413609097059236e-05
3.008849594676989e-05
2.015735466704946e-05
1.331863605688436e-05
8.661247060280715e-06
5.502905030563916e-06
3.397730746459051e-06
2.03761192766388e-06
1.184755999125731e-06
6.730023215590552e-07
3.837446157228398e-07
2.292614500981477e-07
1.50938301640448e-07
1.13181455649357e-07
9.598355282543752e-08
8.860598802019597e-08
8.561855232338078e-08
8.448140643316708e-08
8.407671075041404e-08
8.394213652770748e-08
8.390035632084147e-08
8.388831814393458e-08
8.388510492865763e-08
8.388432307932514e-08
8.388414376709672e-08
8.388411016809825e-08
8.38841018486652e-08
8.388409365913615e-08
8.388407244220479e-08
8.388406272856906e-08
8.388404377342803e-08
8.388402484159715e-08
8.388400035508976e-08
8.388397556265609e-08
8.388394651489803e-08
8.388391723251554e-08
8.388388523652292e-08
8.388385226378241e-08
8.388381823580415e-08
8.388378356077025e-08
8.388374824044707e-08
8.388371233830263e-08
8.388367833577943e-08
8.388364016332679e-08
8.38836116457895e-08
8.38835938578147e-08
8.388355455808428e-08
8.388351825040773e-08
8.388350213403327e-08
8.388348807032269e-08
8.388347383472509e-08
8.388346045198602e-08
8.388345220171143e-08
8.388345475378645e-08
8.388948849498853e-08
8.703718525817506e-08
9.885265196329609e-07
6.052267113431211e-05
0.001647023482985165
0.01608454598792784
0.06490896710386695
0.2588106867748348
4.772948382564014e-09
1.326040605092585e-07
8.747686283088528e-07
3.081890794355755e-06
7.888790582778504e-06
1.673230047438868e-05
3.137940851787397e-05
5.391740912972193e-05
8.669039698706659e-05
0.0001322138090654358
0.0001931252822113899
0.0002721799760973802
0.0003721871368442322
0.000495702940651613
0.0006444805365732729
0.0008185122202274365
0.001014913492210985
0.001227485705200542
0.001447453401229815
0.001665236240617257
0.001872365443720395
0.002062835007964472
0.002232724443207136
0.002379857583389495
0.002503586916900493
0.002604196790094021
0.002682780277229332
0.002741372636134507
0.002782335697761652
0.002807253959765055
0.00281696622748027
0.002811921171808934
0.002792383389982125
0.002758472054451623
0.00271012818307234
0.002647056220780119
0.002568671270920854
0.002473875692560127
0.002360918051850489
0.002228009253874996
0.002074738599558542
0.001903199102755794
0.00171781977345734
0.001521381033456215
0.001318103524783783
0.001113744558009649
0.0009145742042331607
0.0007260922972607168
0.0005538083770140973
0.0004030875282677673
0.0002778886958479991
0.0001801909713953017
0.0001094813242624133
6.223159165955695e-05
3.308093838238177e-05
1.640909206757128e-05
7.488878190634498e-06
3.109701743382631e-06
1.186695893760589e-06
4.440048834609834e-07
1.869416507455728e-07
1.04422376676979e-07
7.952357197955836e-08
7.240445085483663e-08
7.045471570087629e-08
6.99400841769753e-08
6.980888829201819e-08
6.977650028982438e-08
6.976876871071064e-08
6.976689592395396e-08
6.976636446285321e-08
6.976604386400098e-08
6.976574940293317e-08
6.976540855986305e-08
6.976501566267423e-08
6.976450084844632e-08
6.976392841467695e-08
6.976326944050311e-08
6.976255794221392e-08
6.976176279399748e-08
6.976091374325054e-08
6.975998565061201e-08
6.975900553835399e-08
6.975795309204731e-08
6.9756852732715e-08
6.975568991224636e-08
6.9754486655449e-08
6.975322947377913e-08
6.975193970913149e-08
6.97506070551415e-08
6.974924533002631e-08
6.974790698212879e-08
6.97465380078086e-08
6.974533782993766e-08
6.974431925690592e-08
6.974338497469582e-08
6.974256163121718e-08
6.974178182397183e-08
6.974209292448321e-08
7.103337524517182e-08
6.56600394061674e-07
6.64351855493558e-05
0.001952973982743075
0.01471502797588719
0.05168838530020073
0.1222896558495035
0.231067134307049
0.5113995455877404
8.402929815875528e-09
2.334532949300259e-07
1.540032503704509e-06
5.425254285795505e-06
1.38835669277825e-05
2.942786045780232e-05
5.510998573914866e-05
9.444136204062403e-05
0.0001511790784156666
0.0002290368202936557
0.0003314068191161447
0.0004610453332360118
0.0006195008811906395
0.0008061137295928946
0.001016910780539257
0.001244818429627629
0.001480447866636782
0.001714214072795793
0.001938034678503357
0.002146551843123477
0.002336904625062868
0.002507900929657351
0.002659453233495444
0.002791916832356183
0.002905754334404369
0.003001664107196055
0.003080959274358663
0.003146054461429177
0.003198997167416304
0.003240583636344741
0.003271433653208364
0.003291964914557434
0.00330243395983472
0.003302970276993687
0.003293540004765012
0.003274025580655786
0.003244252398505925
0.003203962353362824
0.003152432384559617
0.003088766636636891
0.003011639504938381
0.002919528991427507
0.00281066196973946
0.002682836775646307
0.002533285504263554
0.002359269155148143
0.002159293739457323
0.001934562552911088
0.001690828000404364
0.001440102318718839
0.001191082760101916
0.0009492152281285337
0.0007217770727563777
0.0005181575426536181
0.0003469157237651479
0.0002137222797807947
0.0001198207753247589
6.071292390441945e-05
2.753679640828454e-05
1.09236872292862e-05
3.700611803715405e-06
1.09909643236269e-06
3.227779414737808e-07
1.208172430096927e-07
7.318466623162425e-08
6.283814926240516e-08
6.075641874713894e-08
6.036648270766994e-08
6.02979212645542e-08
6.028626938938262e-08
6.028415991863863e-08
6.028346600403304e-08
6.028299946806131e-08
6.028246406080057e-08
6.028191352215257e-08
6.028125005332138e-08
6.028055484011976e-08
6.027975757540706e-08
6.027892566625379e-08
6.027799375873831e-08
6.02770211405724e-08
6.027595373778704e-08
6.027484234912951e-08
6.027364217824869e-08
6.027239712604725e-08
6.027107293390767e-08
6.026970609398068e-08
6.026826973721567e-08
6.026679806135725e-08
6.026527226855177e-08
6.026371209049125e-08
6.02622194285942e-08
6.026069716348302e-08
6.025932592241586e-08
6.025813224898727e-08
6.025699208226133e-08
6.025595368041629e-08
6.028303479815621e-08
1.268879731459582e-07
2.710383988066241e-05
0.001191996320506402
0.009670734305082791
0.03440505761349139
0.08173164992252245
0.1542661683369588
0.2538119824980626
0.3833096640562949
0.6784037428795943
9.44652812210966e-09
2.624470384904084e-07
1.731298026080019e-06
6.099053231005523e-06
1.560774510517081e-05
3.30807991750082e-05
6.19396158723888e-05
0.0001060925173331497
0.0001696400013449439
0.0002564499608936701
0.0003697134059307948
0.0005114800580052625
0.0006820308833657296
0.000879061601525981
0.001097084948018582
0.001328004085460104
0.001562244720635982
0.001790712847926267
0.002006383231228433
0.002204859780522353
0.002384198696144646
0.002544194792000586
0.0026857247924837
0.002809971421205174
0.002917984991872492
0.003010682338233375
0.00308926117985188
0.003155869860129245
0.003212369246840032
0.003259567169484501
0.003298111826416845
0.003328496452900991
0.003351078058726158
0.003366083916516778
0.003373617149680258
0.003373661114743613
0.003366082340533383
0.003350641674708942
0.003326980718177949
0.003294627228861087
0.003253040704224373
0.003201611099103414
0.003139733153510991
0.003066287371452492
0.002979616865678578
0.002877434073950434
0.002757024383174041
0.002615540176664177
0.002450145800623342
0.002258171865458259
0.002037859768284103
0.001790347748781189
0.001524201454566894
0.001256264823686983
0.0009933783196361531
0.0007424512950774091
0.0005161021644452558
0.0003276871410964277
0.0001862756307634844
9.307852855771441e-05
4.018410280702543e-05
1.456582139662065e-05
4.29460696214061e-06
1.065184011054253e-06
2.628417203213949e-07
9.273806079276859e-08
6.025978048349352e-08
5.458219346234343e-08
5.366993883555419e-08
5.353468645157027e-08
5.35158765497164e-08
5.351303806989293e-08
5.351224183163838e-08
5.351158201722526e-08
5.351093857065204e-08
5.351019020549087e-08
5.350941145299404e-08
5.350852990915124e-08
5.350761173629952e-08
5.350659218542402e-08
5.35055298509852e-08
5.350437068779324e-08
5.350316570277941e-08
5.350187029061326e-08
5.350052811060668e-08
5.349910584607968e-08
5.349764091158159e-08
5.349610622704909e-08
5.349453581298929e-08
5.349291374353522e-08
5.349126086545936e-08
5.348966032158368e-08
5.348804048311175e-08
5.348654713771382e-08
5.348522070174043e-08
5.348639148112311e-08
5.620988755886519e-08
2.56532831239088e-06
0.000279639204739705
0.003819863114884649
0.01665787699031836
0.0439019861867882
0.0875580391208971
0.1476056328382914
0.2255265818509451
0.3259986312790851
0.4622496468051562
0.7689740247239709
8.160831409808678e-09
2.26727606446503e-07
1.495680588126778e-06
5.269303059197531e-06
1.348677260198815e-05
2.859766728692786e-05
5.359124371349984e-05
9.19252243708544e-05
0.0001472936416319291
0.0002232572318589504
0.0003228285846027813
0.0004480464105156446
0.0005994486133330795
0.0007754026342480046
0.0009716091508041225
0.001181689441129985
0.001397962225720503
0.001612570609047356
0.001819030327641397
0.002012627747969972
0.002190420857696298
0.002351162190721256
0.002494826819956678
0.002621978869411542
0.002733304403985139
0.002829551554545876
0.002911613137669684
0.002981616871091619
0.003041829979704047
0.003093253345424481
0.003136651907573085
0.003172639022032379
0.003201698153256189
0.003224191776013444
0.003240368825776843
0.003250370978050656
0.003254236754160761
0.003251904047062445
0.003243210236033679
0.003227890934315363
0.003205576876738806
0.003175788811641277
0.003137929982210053
0.003091275647177575
0.003034983193614954
0.002968100285975943
0.002889668394969301
0.002798427086165202
0.002692026045880906
0.002567449497540366
0.002421011779422126
0.002249135419435495
0.002049179623495985
0.001820521443752543
0.00156631265822615
0.001299073677126569
0.001031806069762809
0.0007711563409348464
0.0005302473643207049
0.0003268789861619241
0.0001754526023394417
7.970078478159781e-05
2.973716637729839e-05
8.727857998157024e-06
1.99881499368982e-06
4.078305881791447e-07
1.072182838000053e-07
5.722796582063581e-08
4.96524555889498e-08
4.859894061234647e-08
4.846403264621513e-08
4.844771891432715e-08
4.844546025541647e-08
4.844464077279245e-08
4.844394939438644e-08
4.84431716138866e-08
4.844235806005663e-08
4.844145064054667e-08
4.844049840101456e-08
4.843944950524542e-08
4.843835224061315e-08
4.843716161505674e-08
4.843591868531672e-08
4.843458598867454e-08
4.843320158725263e-08
4.843173333281215e-08
4.843021576406107e-08
4.842863268015253e-08
4.842701504458481e-08
4.842534475156633e-08
4.842364124761692e-08
4.842196326795721e-08
4.842027108682647e-08
4.841987522924477e-08
4.89677093190026e-08
4.345613101992792e-07
6.540028880278565e-05
0.001486336848811806
0.008436367221654795
0.02467431940110249
0.05273224662038203
0.09325235782644831
0.1461176208961437
0.2128619251319213
0.297041893547432
0.4056738381265723
0.5519707491694816
0.8755478415947441
6.899103278311629e-09
1.916738341088971e-07
1.264448139138901e-06
4.454886558043863e-06
1.140409747367328e-05
2.419097180931651e-05
4.536915362640501e-05
7.792941538788737e-05
0.0001251314904950196
0.000190211426375251
0.0002760387387561808
0.0003847764505150475
0.0005174884738524317
0.0006736118017200701
0.0008504243611947683
0.001043060790453926
0.001245076853776885
0.001449332149763613
0.001649271552986382
0.001839585168465797
0.002016529222987927
0.002178023938233649
0.002323346237948363
0.002452580043356855
0.002566130287858448
0.002664591062192492
0.002748792160820132
0.00282055195306423
0.002882176900243825
0.002935074859319668
0.002980086286847376
0.003017903902329925
0.003049095359902985
0.003074112364790234
0.003093299385081049
0.003106901844333427
0.00311507237325739
0.00311787528976093
0.003115288892551136
0.003107205917513931
0.003093431795142758
0.003073680976508447
0.003047570902321155
0.003014614099592371
0.002974208216559939
0.002925623816273929
0.002867989615279784
0.002800283842614487
0.002721308757047313
0.002629796437445374
0.002524491272290774
0.002402514692969157
0.002260238331035665
0.002093429174424134
0.001898795540524442
0.001676018985696844
0.001429597420722717
0.001172151768139939
0.0009114486844653037
0.000656030206051278
0.0004239482757119838
0.000236940347444946
0.000109914427119069
4.070517480819647e-05
1.145700311488667e-05
2.400885659693103e-06
4.288950681149088e-07
9.94915337099126e-08
5.168309205223895e-08
4.537167430972265e-08
4.460729811340683e-08
4.452188203230461e-08
4.451265126125263e-08
4.451118720838546e-08
4.451042419869403e-08
4.450963529568904e-08
4.450880775104291e-08
4.450789574583808e-08
4.450693292779715e-08
4.45058803322661e-08
4.450476845973862e-08
4.450356698573099e-08
4.450231002516122e-08
4.450097204473899e-08
4.449957562958624e-08
4.449811526465216e-08
4.449660545635666e-08
4.449501888495221e-08
4.449337105740589e-08
4.449168070016977e-08
4.448997619320946e-08
4.44909995108639e-08
4.505978882083702e-08
2.649857253170979e-07
2.558724096673763e-05
0.0007249622337115065
0.004861558361570299
0.01549563617675892
0.03477496892042657
0.06336766314947014
0.1013158092997419
0.1491657691999244
0.208242136325178
0.2810850971780324
0.3719395576804936
0.4874973907785755
0.6375904358239506
0.9600853597266232
6.244348838244841e-09
1.734832016620954e-07
1.144454116149552e-06
4.03226742830637e-06
1.032338316088544e-05
2.190432610641465e-05
4.110223787175989e-05
7.066319452453711e-05
0.0001136129249904701
0.0001729930092210599
0.0002515322374666655
0.000351315887011012
0.0004734292120480671
0.0006175040697048012
0.0007812530180389828
0.0009604658156586765
0.00114962849363888
0.001342567724064875
0.001533241761054952
0.001716647094069668
0.001888983608107991
0.002047812942426916
0.002191931405423222
0.002320964033701411
0.002434945762591941
0.002534186802836992
0.00261934174697884
0.002691882089393056
0.002754082989086102
0.002807662071445796
0.002853487505728141
0.002892282040148199
0.002924645853597883
0.00295106775804722
0.00297193562917869
0.002987544989825467
0.002998106140254499
0.003003749476984364
0.003004529146323849
0.003000424827842882
0.002991341829169708
0.002977109169060438
0.002957475748997273
0.002932104410171635
0.002900564121791243
0.002862320029037638
0.00281672191792953
0.002762991529098324
0.00270020974308257
0.00262730628359732
0.002543083245564708
0.002446190815074169
0.002335179669458683
0.002206986329226828
0.00205777064417954
0.001883573052848466
0.001682343495692921
0.001456239347153735
0.001213292506579418
0.0009609534329437079
0.0007062972332128231
0.0004649266708834275
0.0002618926460650021
0.0001197550268419269
4.224495057177105e-05
1.085530348856695e-05
2.006701802201561e-06
3.207853287385904e-07
7.632290419436008e-08
4.536199444598016e-08
4.178721826577853e-08
4.140808801146017e-08
4.137069805629403e-08
4.136675693125418e-08
4.136579028768907e-08
4.136498386418757e-08
4.136415201352884e-08
4.136323946331787e-08
4.136227432198724e-08
4.136122212056688e-08
4.136011363237526e-08
4.135892089132449e-08
4.135767144949326e-08
4.135634139025556e-08
4.135495603259159e-08
4.135349716569054e-08
4.135197949749345e-08
4.135039446535432e-08
4.134919481327573e-08
4.136697779367776e-08
4.467733764307017e-08
5.313578930491483e-07
2.558210709787602e-05
0.0005826041916953896
0.003672121977213184
0.01152389834976135
0.02582520811329846
0.04709283594862435
0.07539626933293106
0.1110542576306336
0.1546882574013109
0.2074442145671213
0.2711583751802996
0.3485908334253366
0.4437170631345445
0.5620139509069516
0.7104704253203055
1.02270807705852
5.562927130234162e-09
1.545517149971996e-07
1.019570258634884e-06
3.592372077987574e-06
9.198072192369225e-06
1.952131402953772e-05
3.664852389954644e-05
6.306028033959049e-05
0.0001015224830744319
0.0001548616223021706
0.0002256696953707929
0.0003160031399082779
0.0004270759081602809
0.0005588860811930322
0.0007098088198533251
0.0008765176398167075
0.001054398186618951
0.001237987305513651
0.001421603619522309
0.001600152428298275
0.001769560111074903
0.001927019844494658
0.002070917576082585
0.002200495698414958
0.002315466965520981
0.002415943225646124
0.002502420985708062
0.002576025203721738
0.002639003544289506
0.002693374822341549
0.002740034191953999
0.002779732171825588
0.002813097405783051
0.002840648012586664
0.002862802878101222
0.00287989170421842
0.002892163616486645
0.002899794040694468
0.002902888767909931
0.002901485740660132
0.002895556499004149
0.002885005811503241
0.002869669557551913
0.002849310652987242
0.002823613370459505
0.002792175623909595
0.00275449950615104
0.00270997989265006
0.002657891617582548
0.002597375181807208
0.002527421914335952
0.002446888602750394
0.002354450500313532
0.002248610819804816
0.002127403022455929
0.001987148095780981
0.001823835754872171
0.001634726105500528
0.001421208110079366
0.001189571469448343
0.0009449777039539229
0.0006948916141431568
0.0004541746112136612
0.0002496517615067333
0.0001080835884588439
3.460644685956756e-05
7.701646928696246e-06
1.220550476932127e-06
1.84473014289859e-07
5.481851823792617e-08
4.040675628007976e-08
3.894159961320361e-08
3.880442956808134e-08
3.879208420015506e-08
3.879046870775959e-08
3.878961977427634e-08
3.878878828885004e-08
3.878788229329314e-08
3.878692470745399e-08
3.87858838350972e-08
3.87847828981975e-08
3.878359730600083e-08
3.878235365107749e-08
3.878103316144997e-08
3.877967057601016e-08
3.877905316583701e-08
3.879268800302224e-08
3.945496224315288e-08
1.224493904911611e-07
2.672595001940229e-06
6.605990948589497e-05
0.0008424054546613156
0.003874524041610889
0.01065843926021875
0.02222125552630952
0.03885808932798668
0.06077903134634668
0.08818972381215581
0.1214440092127214
0.161159978690559
0.2082799128922375
0.2641642841560624
0.3307124779653976
0.4105177010776601
0.5070453231282123
0.6247988064654968
0.7694152944963573
1.070113544733282
5.140894432315527e-09
1.428265548132689e-07
9.422233586561403e-07
3.319920333269013e-06
8.501080991241603e-06
1.804518571477947e-05
3.388912594614806e-05
5.834800638267691e-05
9.402533765149773e-05
0.0001436139620422186
0.0002096247390660038
0.000294107569332025
0.0003983786201578666
0.000522696771988054
0.0006658793156712151
0.0008251208268994547
0.0009960827330717946
0.001173527517938762
0.001351908844770962
0.001526034452704617
0.001691701612510224
0.001846060535584595
0.001987490570675501
0.002115230533410627
0.0022289625554656
0.002328684830573746
0.002414747859153354
0.002487938281473612
0.002550404315875567
0.002604346105206378
0.002650654207037131
0.002690079779614273
0.002723254847903383
0.002750704151858891
0.002772856695005638
0.002790056106427089
0.002802569199479274
0.002810592346362203
0.002814257512051628
0.002813637154252516
0.002808746630830884
0.002799545077806783
0.002785935097324588
0.00276776133011221
0.002744805916815715
0.002716781149332085
0.002683321846527761
0.002643975548009466
0.002598190244311392
0.002545299094857433
0.002484501847976038
0.002414841652934888
0.002335171207692555
0.002244138784943752
0.002140144922184564
0.002021331070940331
0.001885417052534404
0.001728862559075933
0.001549356905838533
0.001347589652366252
0.001125933782211706
0.0008890740949436114
0.0006447881371687405
0.0004089446976809615
0.0002118490742953333
8.289313760152888e-05
2.277438598559582e-05
4.167854464046099e-06
5.66905709316488e-07
9.358059360107073e-08
4.21762908508247e-08
3.7133709258608e-08
3.668001670511853e-08
3.664200414983367e-08
3.663848144913584e-08
3.663750739051889e-08
3.663666944747039e-08
3.663577005905286e-08
3.663481384984281e-08
3.663378404752274e-08
3.663276306657293e-08
3.663264284246529e-08
3.664035288704415e-08
3.672458551184368e-08
3.975307690592129e-08
1.872886485406184e-07
2.233567083929811e-06
2.569297754559503e-05
0.0003368789169942567
0.001816100151524191
0.005469042745749293
0.01209260779568162
0.02214068180856532
0.03588085129193318
0.05350819815057904
0.07519564926000974
0.1012092199072716
0.1319413103225315
0.1679501424450252
0.2100049080103427
0.2591401230154955
0.316728552087882
0.3845761537937389
0.4650421992524644
0.5611881100706796
0.676969718614593
0.8175459630448134
1.108391394496817
4.748264907776879e-09
1.319184410996245e-07
8.702663812123509e-07
3.066444928827295e-06
7.852550566058566e-06
1.667125611077414e-05
3.131915030297726e-05
5.395439685034794e-05
8.702328351251483e-05
0.0001330832462809073
0.0001945496103702799
0.0002734268181458191
0.0003710504886540267
0.0004877999553006025
0.0006227626838222706
0.0007735570600997098
0.0009363673680672094
0.001106455945827853
0.001278656679535724
0.001447972644577628
0.001610199092458625
0.001762294430259996
0.001902385927378125
0.002029469428528897
0.002143024012082133
0.002242891339760487
0.002329322823896609
0.002402995785498406
0.002465841577749484
0.002520051105419276
0.002566698457234398
0.002606546112509825
0.002640236250859924
0.002668303061314403
0.002691185100274689
0.002709236503446125
0.00272273669296787
0.002731898075945903
0.00273687212264618
0.002737753687823304
0.00273458399774603
0.002727351872832684
0.002715993296313321
0.002700388860142675
0.002680361842655687
0.002655675498567728
0.00262602702424915
0.002591038986028513
0.002550248400965498
0.002503092549774907
0.00244889130813325
0.002386825361342558
0.002315910151704622
0.002234965013667886
0.002142658450187192
0.002037399418449125
0.001917346241913437
0.001780348004789701
0.001624264009055175
0.001447458308458461
0.001249415839647282
0.001031581824730791
0.0007988091982478294
0.0005600880282122395
0.0003348163817463528
0.0001567907543682474
5.260467739299872e-05
1.167941359381745e-05
1.706539367098459e-06
2.151576416218299e-07
5.187651978313416e-08
3.628492369648498e-08
3.492693144316973e-08
3.481797866146487e-08
3.480949900033986e-08
3.480904047202849e-08
3.48121138049917e-08
3.482687795400743e-08
3.489202833458492e-08
3.533911127755149e-08
4.505600925865057e-08
2.169191335274723e-07
1.465298936020742e-06
7.697569672549839e-06
5.734661085187244e-05
0.0004322237869688737
0.001699561499440827
0.004396211339018127
0.008942785153078402
0.01567681902236677
0.02487160307497634
0.03671537419017534
0.05136566505763603
0.06899894523114833
0.08983715938479755
0.1141680628408816
0.1423694580260635
0.1749319851090229
0.2124875766066237
0.2558464730412465
0.3060456425266809
0.364412177838187
0.4326458171103397
0.5129262794626056
0.6080549180819459
0.7216493931662635
0.8584266266612672
1.140569914070169
4.37122253508993e-09
1.214433243464778e-07
8.011649069661885e-07
2.823015595418696e-06
7.229625095965701e-06
1.53510833695098e-05
2.884794851591172e-05
4.972455976211308e-05
8.027054262514168e-05
0.0001229057333346225
0.0001799468971004573
0.0002533508764343732
0.0003444683787048062
0.0004537834138682455
0.0005806181156936194
0.0007229664230716523
0.0008774942653394341
0.001039950229046499
0.001205571729363948
0.001369614367521367
0.001527947801444724
0.001677449851098584
0.001816059530728427
0.001942505914827135
0.002056008879517456
0.002156198304086181
0.002243171865879738
0.002317493829806663
0.002380842782049513
0.002435377846909374
0.002482389977218951
0.002522660323926712
0.00255684867184946
0.002585503777300637
0.002609075645667976
0.002627927393858605
0.00264234562837734
0.002652548896583792
0.002658694315039085
0.002660882486551281
0.002659161009654158
0.002653526446980964
0.002643924832422993
0.002630251029137703
0.002612347352971285
0.002590001331564724
0.002562942631044389
0.002530839327207955
0.002493293983300677
0.002449840144542035
0.002399939829411819
0.002342961172159659
0.002278145286622024
0.002204582810539554
0.002121207785458571
0.002026779956957631
0.001919807884314467
0.001798602453612321
0.001661364430823566
0.001506319937099351
0.001331963050900449
0.001137427932227049
0.0009240126742022419
0.0006958872995400148
0.0004630104462865405
0.0002512911942751694
0.0001004305181738931
2.695772155134307e-05
4.560591567974814e-06
5.446748737845279e-07
8.070735636263691e-08
3.739127332166189e-08
3.41093447119252e-08
3.639278205942053e-08
5.857598224869389e-08
1.910819467542907e-07
7.55383071706999e-07
2.496850445404229e-06
7.021478731814961e-06
2.08735542939243e-05
0.0001030830349839663
0.0004611341012394008
0.001371706185274193
0.003054013556708405
0.005695934546687637
0.009528997162394786
0.01477428655621228
0.02160675007098036
0.03017340312747099
0.04061631168656792
0.05308412061200156
0.06773971370881719
0.084772589553579
0.1044112286774093
0.1269347095204523
0.1526857441909949
0.1820867461521953
0.2156599104938423
0.254053028178626
0.2980730027006557
0.3487295431160237
0.4072923105399243
0.4753661238699795
0.5549912154606186
0.6487801529132154
0.7601118417767341
0.8934184972329776
1.167967697855517
3.995862783841543e-09
1.110148710298286e-07
7.32370363213955e-07
2.580656137646352e-06
6.609345853833463e-06
1.403604877407098e-05
2.638459641204846e-05
4.550293975440374e-05
7.351845544211081e-05
0.0001127049068261574
0.0001652721491417513
0.0002331272277475198
0.0003176472661254567
0.0004194533617821632
0.0005381619737278183
0.000672226343414712
0.0008188654695140965
0.0009742046577438695
0.001133754355770913
0.001292939123836516
0.001447660816448314
0.001594708426639939
0.00173185486301853
0.001857662053945569
0.001971153625954097
0.002071765084465681
0.002159436271474562
0.002234613558768484
0.002298714480995652
0.002353859954240361
0.002401562626429223
0.002442631446147578
0.002477753398838664
0.002507502569946409
0.002532352422868109
0.002552687830283816
0.002568815996075278
0.002580975165967954
0.002589341630638562
0.002594034607679107
0.002595119782298608
0.002592611007615347
0.002586470764356124
0.002576609195697058
0.002562882501587155
0.002545090045593828
0.002522970460422636
0.002496195501709622
0.002464360945695509
0.002426971962986316
0.002383421520405873
0.002332981523768399
0.002274798425519821
0.002207875867734921
0.002131069743416429
0.00204315782666064
0.00194294083099468
0.001829216993089037
0.001700540558396335
0.001555252963862813
0.001391687008842772
0.00120853735459737
0.00100554487721217
0.0007861016344113132
0.0005592369990685924
0.000342211947249475
0.0001628522545276613
5.283573393317612e-05
1.170797918069543e-05
4.492011655809024e-06
6.358750916147254e-06
1.120494214692789e-05
2.104070980519793e-05
5.317113506250756e-05
0.0001633723213403221
0.0004348882215185105
0.0009373566145583593
0.001730747256016727
0.002889901358904347
0.004503885804270588
0.006679026274333503
0.009534939401387907
0.01318812905913359
0.01774495295504733
0.02330980477945781
0.02999236775691938
0.03790649840241385
0.04717050845935318
0.05791132223943992
0.07026981722733451
0.08440590451011012
0.1005038495540992
0.1187786597184667
0.1394837349705908
0.1629201123023555
0.1894479293520887
0.2195009016621417
0.2536047867757407
0.2924011308299463
0.3366780119406739
0.3874101281018005
0.4458115528091755
0.5134061635414636
0.5921238308272319
0.6844366650814629
0.7935630642426822
0.9237996948029101
1.191918561547988
3.908646102785274e-09
1.085918586657256e-07
7.163863874495602e-07
2.524347110235498e-06
6.465240337717619e-06
1.373055517446046e-05
2.581234579408863e-05
4.452206063124302e-05
7.194865528196256e-05
0.0001103298664497187
0.0001618463557096271
0.0002283875938326947
0.0003113333780976153
0.0004113412672686718
0.0005280973468649427
0.0006600525860149812
0.0008043786860302591
0.0009571539756472794
0.00111396031825717
0.001270364960662407
0.001422399729386021
0.001566910944401054
0.001701677915220938
0.001825286918755222
0.001936856384765848
0.00203583884562941
0.002122129839277961
0.002196109553191112
0.002259030858146291
0.002312942397765866
0.002359429810687075
0.002399301376531123
0.002433245625584153
0.002461839574172075
0.002485560161813989
0.002504796203457078
0.002519858963362551
0.00253099098681347
0.00253837275572737
0.002542127530087028
0.002542324267757285
0.002538978877993107
0.002532053586967193
0.002521455099870525
0.002507031846036241
0.002488570782855399
0.002465793808187265
0.002438354503894593
0.002405835805122881
0.002367750293904086
0.002323545614833211
0.002272621063847689
0.002214364279237038
0.002148224512209874
0.002073855057385376
0.001991294736921591
0.001900251695704029
0.001799016155361544
0.001686202763693315
0.00156192347524946
0.001426347037351755
0.001279527853248837
0.001121403475341373
0.0009537596559612947
0.000794470594439751
0.0007187767747589917
0.0008588276089505288
0.001207074731064224
0.001683940630900875
0.002249706888861174
0.002920867906622533
0.003729408718473215
0.004710836971151378
0.005904298833113719
0.007353480363594205
0.009105482655149776
0.01120930640376789