/*--------------------------------*- C++ -*----------------------------------*\
| =========                 |                                                 |
| \\      /  F ield         | OpenFOAM: The Open Source CFD Toolbox           |
|  \\    /   O peration     | Version:  v1812                                 |
|   \\  /    A nd           | Web:      www.OpenFOAM.com                      |
|    \\/     M anipulation  |                                                 |
\*---------------------------------------------------------------------------*/
FoamFile
{
    version     2.0;
    format      ascii;
    class       volScalarField;
    location    "0.00000054";
    object      nut;
}
// * * * * * * * * * * * * * * * * * * * * * * * * * * * * * * * * * * * * * //

dimensions      [0 2 -1 0 0 0 0];


internalField   nonuniform List<scalar> 
44064
(
1.984069966791721e-16
2.973827149676496e-14
5.617239376993767e-13
4.11996086913427e-12
1.827434485169626e-11
5.944486150353805e-11
1.55949696209599e-10
3.480044419677052e-10
6.846120655231224e-10
1.221601604220014e-09
2.025047043112706e-09
3.179127363926803e-09
4.805155601968898e-09
7.088839885912954e-09
1.031166263988928e-08
1.491800233658957e-08
2.159497315524505e-08
3.14099196514291e-08
4.59486586138511e-08
6.726089048700143e-08
9.761292959373015e-08
1.391840030419302e-07
1.937250276344101e-07
2.622558417921396e-07
3.448973583261706e-07
4.409227392016262e-07
5.490303837626317e-07
6.671772566350167e-07
7.928620337200941e-07
9.232888152752617e-07
1.055651534493824e-06
1.186802825838037e-06
1.313314235817911e-06
1.43147853985656e-06
1.537231509691624e-06
1.62638464444677e-06
1.694750932431027e-06
1.737992573729515e-06
1.75474440655239e-06
1.747145403115221e-06
1.717424912640927e-06
1.668669282794803e-06
1.60293659149735e-06
1.520495833059587e-06
1.422190670413912e-06
1.309611431170982e-06
1.185318309384876e-06
1.05194262655194e-06
9.113578642666355e-07
7.647682914999106e-07
6.142797715839544e-07
4.658864879015374e-07
3.302567557321867e-07
2.183554257891191e-07
1.35501095627786e-07
8.026777656315867e-08
4.690997764511349e-08
2.837640469699874e-08
1.878999955144812e-08
1.413293275772221e-08
1.200322656754591e-08
1.108686717651127e-08
1.071571672383211e-08
1.05745450509101e-08
1.052428569759928e-08
1.050757020843114e-08
1.050238761369293e-08
1.050089694966751e-08
1.050050056738934e-08
1.050040485936425e-08
1.050038376998272e-08
1.050038041721966e-08
1.050037998545969e-08
1.050038015309084e-08
1.050037940961299e-08
1.050037937465083e-08
1.050037863474345e-08
1.050037807335847e-08
1.050037703467852e-08
1.050037612640231e-08
1.050037484802196e-08
1.050037368034204e-08
1.050037225565418e-08
1.050037087225957e-08
1.050036934361581e-08
1.050036784928975e-08
1.05003662573053e-08
1.050036468031998e-08
1.050036314556008e-08
1.050036144556695e-08
1.050036015851833e-08
1.050035937682217e-08
1.050035759822524e-08
1.050035596044724e-08
1.050035523747995e-08
1.050035461177814e-08
1.050035397404619e-08
1.050035337416325e-08
1.050035300842471e-08
1.050035355200403e-08
1.050110982763701e-08
1.089519719643039e-08
1.237631291871412e-07
7.585733864421302e-06
0.0002066818790761604
0.001990371729295257
0.007953255225701424
0.005921395518951134
4.178867677876277e-15
6.333653365034561e-13
1.19919168777328e-11
8.814422639325672e-11
3.923796794827511e-10
1.283505369251186e-09
3.390347778072759e-09
7.609803766595542e-09
1.4990529153632e-08
2.659184000384058e-08
4.348769357157769e-08
6.697240222750781e-08
9.8865835952757e-08
1.416499703770679e-07
1.987803877560361e-07
2.747415835056446e-07
3.745422892577221e-07
5.030734892910538e-07
6.643273915579383e-07
8.609411664176565e-07
1.094080982477657e-06
1.366281747780127e-06
1.679426654727648e-06
2.033169628711931e-06
2.425751883558031e-06
2.849825859753399e-06
3.293066250675376e-06
3.743592632376798e-06
4.19638906320343e-06
4.65233537974965e-06
5.115037464277201e-06
5.58272108934739e-06
6.051372612404809e-06
6.51557331022608e-06
6.968205337112924e-06
7.399594381465184e-06
7.796710277716728e-06
8.145963981479162e-06
8.448532555857843e-06
8.726166841941076e-06
9.000886564456163e-06
9.280904075470136e-06
9.521122250138577e-06
9.470044949161637e-06
9.240941127060323e-06
8.87477160777993e-06
8.37186611391488e-06
7.746583574366841e-06
7.021500975820823e-06
6.222076539661965e-06
5.367478381984693e-06
4.486100504513123e-06
3.617101331046504e-06
2.795510354114581e-06
2.042456570203499e-06
1.370494042691963e-06
8.047416164419571e-07
3.964497712157707e-07
1.659193148151166e-07
6.462243544694614e-08
2.757095133661855e-08
1.547010467518811e-08
1.180022070792684e-08
1.074857404987789e-08
1.046054772263955e-08
1.038459009021887e-08
1.036523516480569e-08
1.036046787575135e-08
1.035934159779606e-08
1.035908723346091e-08
1.035903484928597e-08
1.035902269840036e-08
1.035902006592241e-08
1.035901783544843e-08
1.035901631574484e-08
1.035901046862402e-08
1.035900451640221e-08
1.035899632093722e-08
1.035898836788919e-08
1.035897841568004e-08
1.035896858569799e-08
1.035895700850022e-08
1.035894552103363e-08
1.03589325364593e-08
1.035891963812795e-08
1.035890555422699e-08
1.035889165649834e-08
1.035887676427136e-08
1.035886201237418e-08
1.035884629565461e-08
1.035883008224234e-08
1.035881473389141e-08
1.035879949213932e-08
1.035878575897961e-08
1.035877458391646e-08
1.035876412493947e-08
1.035875522211864e-08
1.035874705088616e-08
1.03588734853177e-08
1.055071539452935e-08
9.753445800558543e-08
9.874343954854081e-06
0.0002904216442106463
0.002178001193920347
0.007574318793775632
0.01768831062013417
0.03299689921594767
0.01182690588221358
7.357027643913438e-15
1.115040892571439e-12
2.110916413222525e-11
1.550864222782568e-10
6.895745118536811e-10
2.250628733436782e-09
5.924329412659288e-09
1.323806330629629e-08
2.595691545076874e-08
4.588160900750141e-08
7.492992470411257e-08
1.155261095096867e-07
1.710415014835483e-07
2.458986683420083e-07
3.443857150315918e-07
4.71180660160378e-07
6.295788755996406e-07
8.220560175520082e-07
1.049314904734996e-06
1.312540882438197e-06
1.614221883674938e-06
1.95700499737559e-06
2.345293754403949e-06
2.783430255187933e-06
3.270619187180807e-06
3.798596708805622e-06
4.353330212960881e-06
4.932134858125336e-06
5.548215736392241e-06
6.20174330790711e-06
6.893017323158863e-06
7.620587381508979e-06
8.382393407176273e-06
9.177417713219225e-06
1.00010564345362e-05
1.084813521189783e-05
1.171085890556382e-05
1.256819136136528e-05
1.335326545157976e-05
1.407538195806346e-05
1.472866383545136e-05
1.529243465285587e-05
1.573348042918973e-05
1.60181068360325e-05
1.61478553112954e-05
1.615577297478661e-05
1.607952474176995e-05
1.597928617215748e-05
1.592896916489157e-05
1.586729291473579e-05
1.510225459718072e-05
1.38401302553311e-05
1.236025049806316e-05
1.070990277721593e-05
8.941983093284139e-06
7.125608673423224e-06
5.377965204118027e-06
3.795306066694988e-06
2.423580324160839e-06
1.306764174690594e-06
5.468036096403517e-07
1.791813508240096e-07
5.429960928300752e-08
2.048763522260376e-08
1.243276395608667e-08
1.067923428894431e-08
1.032630441184397e-08
1.02602383146845e-08
1.024866476300782e-08
1.024674703824363e-08
1.024644708463347e-08
1.024639734530865e-08
1.024638983566272e-08
1.024638254648946e-08
1.024637895609535e-08
1.024636986967952e-08
1.024636274271126e-08
1.024635124742418e-08
1.024634173212012e-08
1.024632832472014e-08
1.024631648807652e-08
1.024630132048928e-08
1.024628740031528e-08
1.024627060843948e-08
1.024625477313956e-08
1.024623663193868e-08
1.024621925118792e-08
1.024619995169098e-08
1.0246181299447e-08
1.024616112565732e-08
1.024614061502099e-08
1.024612101631901e-08
1.024610178771676e-08
1.024608391938312e-08
1.024606904667908e-08
1.024605469417454e-08
1.024604407693889e-08
1.025076795895244e-08
2.157719607528784e-08
4.610274469377098e-06
0.0002028001514686923
0.001639517912412899
0.005780247593409682
0.01356679995956136
0.02510591292018107
0.04012819349660363
0.05823823392708865
0.01567910577419356
8.270731648630059e-15
1.253528646206799e-12
2.373171587544962e-11
1.743793705696185e-10
7.756988644027543e-10
2.534355610881089e-09
6.684654892159285e-09
1.498506967821382e-08
2.950488943442143e-08
5.238170192512056e-08
8.586011392127101e-08
1.326525162930817e-07
1.963176539084103e-07
2.812850242161809e-07
3.919547492964342e-07
5.32962420292087e-07
7.076998233233926e-07
9.181405935806972e-07
1.165311281353382e-06
1.449397217286088e-06
1.770888850252831e-06
2.130589020189499e-06
2.532014675220948e-06
2.980124371131866e-06
3.477089140698633e-06
4.018354281942256e-06
4.592469509945721e-06
5.199339008817388e-06
5.853209531084564e-06
6.557060203680014e-06
7.313417769621625e-06
8.123858793273649e-06
8.989379162875284e-06
9.910201238473979e-06
1.088551846650246e-05
1.191320986339255e-05
1.29894916131885e-05
1.410995361639199e-05
1.526746135066433e-05
1.645131285365626e-05
1.765103394944854e-05
1.884925740365189e-05
2.002090888046054e-05
2.103327453067611e-05
2.183054729848358e-05
2.242668500461349e-05
2.281078177694544e-05
2.295500649666972e-05
2.283058443519437e-05
2.245244612694764e-05
2.189603192154748e-05
2.129190669579106e-05
2.082605072238676e-05
2.041372606667698e-05
1.856576020472648e-05
1.622350353682319e-05
1.362504331365598e-05
1.08865378111813e-05
8.166083268310361e-06
5.673328723333978e-06
3.542286308356463e-06
1.837865136861339e-06
7.011302306870134e-07
1.94595105186683e-07
4.949641138376064e-08
1.757309315591923e-08
1.143165207774271e-08
1.035658343929528e-08
1.018385632096527e-08
1.015831687668999e-08
1.015483605596358e-08
1.015439132150664e-08
1.015433785864618e-08
1.015432384063421e-08
1.015431804637843e-08
1.015430670621926e-08
1.015429775365308e-08
1.015428383349743e-08
1.015427214322143e-08
1.015425601472649e-08
1.015424165153812e-08
1.015422343856694e-08
1.015420663307927e-08
1.015418652652163e-08
1.015416747448142e-08
1.015414578149895e-08
1.015412500846429e-08
1.015410202008745e-08
1.015407969395887e-08
1.015405572123767e-08
1.015403143561586e-08
1.015400786386543e-08
1.015398498983552e-08
1.015396331052334e-08
1.015394497959624e-08
1.015438630625686e-08
1.067170327240752e-08
4.871012934315692e-07
5.311360642020552e-05
0.0007239227804744593
0.003132589013075866
0.008151580414709675
0.01588722218093508
0.02571060552823833
0.03655033196752353
0.04650346500334685
0.05232278993835895
0.01774895847637373
7.145068019588164e-15
1.082940590827552e-12
2.050497401935045e-11
1.507497491065897e-10
6.715271665167094e-10
2.200343256571156e-09
5.832222220660252e-09
1.316632707587384e-08
2.614311398558933e-08
4.680603549401948e-08
7.726255195297868e-08
1.199477500169083e-07
1.779583561432402e-07
2.550689590325133e-07
3.547450629803195e-07
4.808890846208793e-07
6.37305384238212e-07
8.262398689890804e-07
1.050432392710412e-06
1.312514483618907e-06
1.613941530369971e-06
1.956448164801158e-06
2.343513302055542e-06
2.779967636837138e-06
3.26811220603404e-06
3.80441451575417e-06
4.376134356194244e-06
4.977372333662168e-06
5.624711325906927e-06
6.323500454024417e-06
7.077539701676258e-06
7.889875690297598e-06
8.763296249888013e-06
9.700208026742673e-06
1.070247787834542e-05
1.177124443920331e-05
1.290669490235202e-05
1.410779935901592e-05
1.537197469235229e-05
1.669468400091287e-05
1.806896622763836e-05
1.948477351649053e-05
2.092815057412322e-05
2.238026003535844e-05
2.381893818460647e-05
2.521364495229544e-05
2.652928118098835e-05
2.76318786051663e-05
2.827381813241416e-05
2.851556987048525e-05
2.838840297576275e-05
2.791161781849636e-05
2.711849169618624e-05
2.61135736255201e-05
2.50849857157008e-05
2.415713271975245e-05
2.24908764501907e-05
1.945312218077404e-05
1.604372608300883e-05
1.244517507933551e-05
8.920577971054601e-06
5.789040406539456e-06
3.238194515761715e-06
1.372909495223641e-06
3.860741269082048e-07
8.36842017711032e-08
2.225503905544021e-08
1.190026205125546e-08
1.032771651613953e-08
1.010902022640228e-08
1.008109681972572e-08
1.007781578820976e-08
1.007745987253113e-08
1.007741646101914e-08
1.007740688810897e-08
1.007739429541422e-08
1.007738364541344e-08
1.007736844717353e-08
1.007735487448777e-08
1.007733698944393e-08
1.007732049444454e-08
1.007730026448791e-08
1.007728109363946e-08
1.007725861645507e-08
1.00772369589095e-08
1.007721249491023e-08
1.007718842775334e-08
1.007716221619707e-08
1.00771367012183e-08
1.007710975808253e-08
1.00770824601411e-08
1.007705545682949e-08
1.007702922392742e-08
1.007724862470125e-08
1.019156094499769e-08
9.045200323949103e-08
1.36167697074977e-05
0.0003091502690018087
0.001744747083002453
0.005053088627003433
0.01064461639821608
0.01834831271950203
0.0275896768446485
0.03772244165770378
0.04789673104448929
0.05712985050180753
0.06475350441423877
0.02020019354406985
6.040387815068932e-15
9.155233591934708e-13
1.733700785873913e-11
1.27516311449107e-10
5.686974477040644e-10
1.867881701826277e-09
4.971209667008243e-09
1.128829829443162e-08
2.257221032340429e-08
4.069802892403894e-08
6.757017328022777e-08
1.053053136460498e-07
1.5655465919774e-07
2.246527663032014e-07
3.131784251434285e-07
4.258532355395824e-07
5.665412473301505e-07
7.383292617132848e-07
9.445381094635204e-07
1.188261039043692e-06
1.471720367590696e-06
1.797132288959976e-06
2.167954284872585e-06
2.588918547005624e-06
3.062838049640747e-06
3.587178808634999e-06
4.151183058326255e-06
4.745541945807646e-06
5.380185004539484e-06
6.065090289224305e-06
6.804254605186499e-06
7.600961177358074e-06
8.458342193807342e-06
9.37931059752794e-06
1.036646425485018e-05
1.14219677983568e-05
1.254740217048587e-05
1.374357612336818e-05
1.501029656683395e-05
1.634609620068604e-05
1.77479126166815e-05
1.92106846418006e-05
2.072681298803446e-05
2.228544625096208e-05
2.387153391807682e-05
2.546448546080304e-05
2.703650486100021e-05
2.855340461904688e-05
2.996930986326772e-05
3.124055319462711e-05
3.229767894669922e-05
3.263514170497972e-05
3.240319887038732e-05
3.172516899809582e-05
3.0716345726753e-05
2.951012733158289e-05
2.825221185748016e-05
2.690933918608564e-05
2.389364304734503e-05
2.004212395150573e-05
1.579154236697075e-05
1.144996671119144e-05
7.460507533292876e-06
4.20074336474549e-06
1.807804996688003e-06
4.92299124855083e-07
9.499938577092791e-08
2.233092982321212e-08
1.162153016597155e-08
1.020473765675236e-08
1.003318486851803e-08
1.001411897060286e-08
1.001217165747997e-08
1.001198172270409e-08
1.001195860741238e-08
1.001194453404373e-08
1.001193231138385e-08
1.001191623884733e-08
1.001190104773835e-08
1.001188206902672e-08
1.001186345908989e-08
1.001184125053826e-08
1.001181953851041e-08
1.001179499812653e-08
1.001177053778787e-08
1.001174425928825e-08
1.001171884872626e-08
1.00116911051471e-08
1.001166236895948e-08
1.001163213108762e-08
1.001160491401221e-08
1.001217881592713e-08
1.014055501586673e-08
5.963900337617975e-08
5.760344568978761e-06
0.0001631498297744088
0.001089998569860781
0.003449536576339104
0.007661579223993172
0.01373212953246002
0.02141249429063203
0.03037757486041068
0.0402399221155369
0.05056751698697295
0.0609260053377433
0.07104344353013117
0.08117752814258097
0.02214307159950684
5.467131136788701e-15
8.286454507897291e-13
1.569317178546356e-11
1.154643035827741e-10
5.154050460620967e-10
1.695978958454084e-09
4.528296831929108e-09
1.033199734166655e-08
2.078558859325609e-08
3.771989237470486e-08
6.299016864230374e-08
9.859535036166092e-08
1.469627796491227e-07
2.111105426604063e-07
2.942555891345009e-07
3.994679902294444e-07
5.302602423607716e-07
6.90177846654679e-07
8.820706027159906e-07
1.109583581901937e-06
1.375789061859735e-06
1.683588218008675e-06
2.03684807662174e-06
2.440581405208672e-06
2.898175822486173e-06
3.40763352045309e-06
3.959538508036694e-06
4.542445236563211e-06
5.160597487690989e-06
5.827651756131175e-06
6.547738942601651e-06
7.324261952144253e-06
8.160474135439592e-06
9.059446010805881e-06
1.00240164083583e-05
1.105673147657474e-05
1.215976226265569e-05
1.333479495815265e-05
1.458289036790508e-05
1.590431159987469e-05
1.729831432715902e-05
1.876287158275956e-05
2.029428518379083e-05
2.188665549232787e-05
2.353117545413851e-05
2.521519365966637e-05
2.6921026114053e-05
2.862450394417166e-05
3.029312575336569e-05
3.188388732840579e-05
3.334937245816196e-05
3.46264155778043e-05
3.561630790931425e-05
3.57829744085628e-05
3.527547347126795e-05
3.430247829069166e-05
3.304955696020981e-05
3.165374252892e-05
3.002063786648949e-05
2.701702993112699e-05
2.278618061328882e-05
1.798678566230856e-05
1.297194124604246e-05
8.303773163434412e-06
4.527319647989051e-06
1.836420899926562e-06
4.450549657072258e-07
7.629875582006812e-08
1.834160390259604e-08
1.091476959873034e-08
1.005608303244623e-08
9.965106498189913e-09
9.956256947175977e-09
9.955459158635394e-09
9.955386491924247e-09
9.955367893389307e-09
9.955354335372828e-09
9.955337068299802e-09
9.955320431406458e-09
9.955299945833284e-09
9.955279936314424e-09
9.955256552475782e-09
9.955233459157083e-09
9.95520740695803e-09
9.95518156437467e-09
9.955153136463469e-09
9.955124560431723e-09
9.955094868859807e-09
9.955168628412069e-09
9.959819999174618e-09
1.075731505039257e-08
1.27952555126425e-07
6.161924964835289e-06
0.0001402968712056643
0.0008818646475167085
0.002753288413435963
0.006124542961512006
0.01103834578146541
0.01737752433961761
0.02499338793081816
0.03369476435143288
0.04326234925728743
0.0534588051119107
0.06405602736881982
0.07490096640345553
0.08604319236405647
0.09793304263764033
0.02357379195150825
4.870525734193713e-15
7.382259196241421e-13
1.398181373854374e-11
1.029023958074662e-10
4.596802457779233e-10
1.514995167215185e-09
4.056154912867682e-09
9.292520145445296e-09
1.879167101842628e-08
3.4293322832292e-08
5.756081777382521e-08
9.044450911136149e-08
1.351271302801182e-07
1.943115695923139e-07
2.709496849540192e-07
3.679851259086145e-07
4.88914921835556e-07
6.37437361691972e-07
8.168770093848295e-07
1.030741439055912e-06
1.282244246783797e-06
1.574679921156232e-06
1.912243043553003e-06
2.300218820964744e-06
2.741985633739787e-06
3.236883064564116e-06
3.777015758624348e-06
4.348870250999776e-06
4.951290042206973e-06
5.601099019437225e-06
6.302567580966527e-06
7.059243069650827e-06
7.87449855599789e-06
8.751505157440046e-06
9.693203188817124e-06
1.070227667535625e-05
1.178111998276536e-05
1.293178848738524e-05
1.415593015045575e-05
1.545469865387225e-05
1.682864420757807e-05
1.827754539581982e-05
1.980012353127177e-05
2.13936163208622e-05
2.30531904398203e-05
2.47711428649566e-05
2.653584760269002e-05
2.833042939587292e-05
3.013110974612353e-05
3.190513509304687e-05
3.36082191032258e-05
3.519057445245737e-05
3.658013563241751e-05
3.768817478403004e-05
3.829983807911183e-05
3.795581294977529e-05
3.698905451895861e-05
3.571320383434562e-05
3.432171553643269e-05
3.254927393437632e-05
2.886395156247134e-05
2.422377608769764e-05
1.889915847290499e-05
1.331705260488982e-05
8.18985253862601e-06
4.178707087987088e-06
1.483470510659216e-06
2.957204156820884e-07
4.68060591259923e-08
1.398864024060523e-08
1.031730002085257e-08
9.94389269759241e-09
9.909060022871174e-09
9.906069849370323e-09
9.905826977149563e-09
9.905795589444357e-09
9.905780255679968e-09
9.905761964995925e-09
9.905744246958654e-09
9.905722788542057e-09
9.905701316768672e-09
9.905676248121636e-09
9.905651205653097e-09
9.905623475503983e-09
9.905599815722279e-09
9.905781356574089e-09
9.90961673236269e-09
1.007919031055069e-08
3.128305795362131e-08
6.828997805145055e-07
1.68836700217111e-05
0.0002151690456631352
0.0009870055946604914
0.00270463284221524
0.0056073361845842
0.009722730742122583
0.01502686160456853
0.02144637649760636
0.0288887729447416
0.03724899525555038
0.04640561139036999
0.05622304217986903
0.0665637285691732
0.07731377269857165
0.08842598564219667
0.09997583134762571
0.112199405318413
0.02464954029699275
4.501023272239986e-15
6.822244078675052e-13
1.292184209502869e-11
9.512107279493691e-11
4.251536492963845e-10
1.402806767852006e-09
3.763292563379393e-09
8.647424010678759e-09
1.755474492792763e-08
3.217240912928388e-08
5.421578935998532e-08
8.545815049765961e-08
1.279587992637113e-07
1.84291757011459e-07
2.574022293066778e-07
3.506140350406769e-07
4.670881828587802e-07
6.104256450752866e-07
7.842294317273977e-07
9.915915912423885e-07
1.23503276042431e-06
1.517475547851147e-06
1.842906691622344e-06
2.216744171459978e-06
2.643399583166311e-06
3.123337715915659e-06
3.650106585172809e-06
4.20882815716153e-06
4.794215550742156e-06
5.425175576980295e-06
6.106012123102958e-06
6.840361102171694e-06
7.631623656649073e-06
8.482954025277717e-06
9.397226174277029e-06
1.037701978571508e-05
1.142461748666262e-05
1.254200565358995e-05
1.373087363197198e-05
1.499260795915267e-05
1.632827608218549e-05
1.773855827562158e-05
1.922356206478238e-05
2.078249430092159e-05
2.241317667082634e-05
2.411136196279981e-05
2.586982513695695e-05
2.767719745792433e-05
2.951647770478738e-05
3.1363203646987e-05
3.31832627889241e-05
3.493032614529516e-05
3.654240795029155e-05
3.794940117340726e-05
3.907466265874308e-05
3.984204020318238e-05
4.007216147027413e-05
3.931879948076683e-05
3.802971218469053e-05
3.636225818973325e-05
3.37010537300929e-05
2.966252056645304e-05
2.455769002121e-05
1.868459878846818e-05
1.261908328217536e-05
7.273683267113413e-06
3.324213912980437e-06
9.404003866880069e-07
1.488226205715821e-07
2.512246711771545e-08
1.134912742357795e-08
9.994513853371162e-09
9.872732903519501e-09
9.86268095989269e-09
9.86191140611871e-09
9.861843290635057e-09
9.861824242372811e-09
9.861804654984902e-09
9.86178498266005e-09
9.861762539623802e-09
9.861755934260626e-09
9.862009208353132e-09
9.864388136380483e-09
9.887393279966391e-09
1.070317423436976e-08
5.042932897587365e-08
6.014921778309367e-07
6.920531106960202e-06
9.072030253829345e-05
0.0004881923039884226
0.00146630566624619
0.003233038479177321
0.00589256001663339
0.009487644103668506
0.01402294229008571
0.01947109851276569
0.0257978064894516
0.0329593471649394
0.04090253089673572
0.04956228465360216
0.05886111208605774
0.06871249084003707
0.07902969592923904
0.08973971857426716
0.1007981731224785
0.1121905430217243
0.1238808881075024
0.02551435136299171
4.157264033161729e-15
6.301248523271867e-13
1.193565033711815e-11
8.787892148127735e-11
3.929904388828216e-10
1.298106002315407e-09
3.489142867629572e-09
8.041059899709661e-09
1.638720222056013e-08
3.016559209375655e-08
5.105397457461243e-08
8.076479117364229e-08
1.212365024308508e-07
1.748560827717627e-07
2.443695242001746e-07
3.329201605032153e-07
4.435757168462817e-07
5.798873909156233e-07
7.454960891393387e-07
9.436539119172346e-07
1.177273647964919e-06
1.449384358125621e-06
1.763998675214393e-06
2.12651015009287e-06
2.54136510512071e-06
3.009176439289608e-06
3.524587514913973e-06
4.073680544364007e-06
4.648872484971345e-06
5.265115206619331e-06
5.929244616362864e-06
6.64492079047029e-06
7.41559246968442e-06
8.244472105363381e-06
9.134487660949844e-06
1.008825638200265e-05
1.110807824967883e-05
1.219594645509132e-05
1.335357147677893e-05
1.458241906516455e-05
1.588375431587091e-05
1.725864812390543e-05
1.870787418688165e-05
2.023167002464442e-05
2.182934900328795e-05
2.349872145239627e-05
2.523529940388e-05
2.70312522799032e-05
2.88741236766828e-05
3.074528679794558e-05
3.261809751732048e-05
3.445580042340463e-05
3.620931071441116e-05
3.781510731887051e-05
3.92192666448017e-05
4.033705418489658e-05
4.106199462240366e-05
4.125450947158944e-05
4.07789190859357e-05
3.947703787059039e-05
3.721125896234799e-05
3.384298490160756e-05
2.928604220970951e-05
2.361798434795735e-05
1.722912946096604e-05
1.09055964100504e-05
5.722456787406376e-06
2.18010742112628e-06
4.441113677176976e-07
6.017705146667419e-08
1.462622641690138e-08
1.02378297588484e-08
9.85541104400577e-09
9.824883424250318e-09
9.822678376143687e-09
9.822750423257739e-09
9.823832424043907e-09
9.828230491407193e-09
9.846865255126134e-09
9.973314264527281e-09
1.271604628780943e-08
6.122423179995967e-08
4.1361248888191e-07
2.173153916130288e-06
1.619184889880006e-05
0.0001219433740677167
0.0004785470689710927
0.001235899405121666
0.002509863555756491
0.004387307048954372
0.006932950703563301
0.01018101843434628
0.01414403272031186
0.01882633211443303
0.02422621196001916
0.03033586561762524
0.03714174436195151
0.04462253587762111
0.05274751844551642
0.06147554668220533
0.07075573203904656
0.08053056781682352
0.09074192338148991
0.1013394228662961
0.1122891838646145
0.1235793368151819
0.1352224196026225
0.02623930540629724
3.827151650509647e-15
5.800926411550371e-13
1.098847475057374e-11
8.091996719413998e-11
3.620456874963631e-10
1.197101753974742e-09
3.223407590256009e-09
7.448972233738732e-09
1.523597926054828e-08
2.816506767795675e-08
4.787024780588581e-08
7.600523131787158e-08
1.143976623770621e-07
1.652569035419872e-07
2.311211888657827e-07
3.149204378548109e-07
4.195722666978316e-07
5.4849446925268e-07
7.052501547468426e-07
8.931073017141737e-07
1.115094711999966e-06
1.374467833950039e-06
1.675630780527746e-06
2.024044274969273e-06
2.424208761180813e-06
2.877050114681059e-06
3.378094902695251e-06
3.914746580642269e-06
4.477408934206156e-06
5.076326625048865e-06
5.721150367722951e-06
6.415658409322371e-06
7.163521189736409e-06
7.968223340033786e-06
8.832991435980777e-06
9.760741664496946e-06
1.075404746581249e-05
1.181512966138658e-05
1.294587426015876e-05
1.414788516747076e-05
1.542257301119048e-05
1.67712219643621e-05
1.81949448302589e-05
1.969450649744217e-05
2.127001280503453e-05
2.292042617496792e-05
2.464287166899596e-05
2.643176381940837e-05
2.827774870046143e-05
3.016638586750831e-05
3.207653895135958e-05
3.397851448290508e-05
3.583203201841595e-05
3.758413061280724e-05
3.91741278329958e-05
4.053400311597347e-05
4.156419151848674e-05
4.214591691440495e-05
4.213809900012947e-05
4.139279254321591e-05
3.976670587911345e-05
3.70960129291869e-05
3.323496882874434e-05
2.808940887250847e-05
2.179713497566325e-05
1.492110941755669e-05
8.590067104662129e-06
3.905716787849697e-06
1.09147447161861e-06
1.561944488321872e-07
2.371183198021863e-08
1.100966803654792e-08
1.004521909462075e-08
1.071804865054268e-08
1.725173172184665e-08
5.627951388548224e-08
2.224969448293706e-07
7.355053461744892e-07
2.068573995666481e-06
6.150207773545598e-06
3.036309510428991e-05
0.0001356285600408167
0.0004027985092626317
0.0008962950551095151
0.001670333061475056
0.002790162063315937
0.004316398143229797
0.006295358815451473
0.00876103366837048
0.01174009224778296
0.01525538942336523
0.01932566701720701
0.02396582345515488
0.02918780479574
0.03499994451778345
0.0414057978365799
0.04840287454082399
0.05598128851711399
0.064122732828896
0.07280011753163348
0.08197829133096446
0.09161617970338111
0.1016704094620377
0.1120999316864215
0.1228703010908035
0.1339554513687011
0.1453350763124665
0.0268551860472216
3.498512321601831e-15
5.302822751291713e-13
1.004537579194065e-11
7.398776439033792e-11
3.311829263708233e-10
1.09611294081584e-09
2.956531042086884e-09
6.850236553998869e-09
1.406086241999581e-08
2.609992018497416e-08
4.454423221641662e-08
7.09766319180364e-08
1.07104135897184e-07
1.549548400298848e-07
2.168815772078007e-07
2.956970979398306e-07
3.945710641678285e-07
5.166787094229986e-07
6.653910500639683e-07
8.43954558477431e-07
1.055443708422031e-06
1.303170232778935e-06
1.591423535524312e-06
1.925993944383899e-06
2.311749914569845e-06
2.750065642787485e-06
3.237304707608029e-06
3.762249005238693e-06
4.313563588429275e-06
4.896813605374957e-06
5.524215203634937e-06
6.199717843883495e-06
6.927253606949461e-06
7.710658905905311e-06
8.553596808052682e-06
9.459491730913323e-06
1.043147823925386e-05
1.147236823413782e-05
1.258464365777549e-05
1.377048353411968e-05
1.503182614799763e-05
1.637042442996839e-05
1.778781617392061e-05
1.928518165970876e-05
2.086308022975535e-05
2.252103550595124e-05
2.425696369285719e-05
2.606641394621372e-05
2.79415919849401e-05
2.987016044126923e-05
3.183381227838269e-05
3.380657880202266e-05
3.575289018726867e-05
3.762544059324464e-05
3.936254112534464e-05
4.089860289098993e-05
4.214820058396508e-05
4.299915540589726e-05
4.3305976618588e-05
4.292412908478183e-05
4.170489995529288e-05
3.949218458398133e-05
3.611779417949426e-05
3.144565748888225e-05
2.550161393550215e-05
1.867830807991646e-05
1.176318496548159e-05
6.01136427612816e-06
2.392062510852737e-06
1.288269737720358e-06
1.934809347688325e-06
3.428342770344637e-06
6.441263563676489e-06
1.627210235613091e-05
4.993350037629926e-05
0.0001327708915557481
0.0002861162537652374
0.0005282345474740122
0.0008818197257563744
0.001373659872561962
0.002035314308944833
0.002901875374469882
0.004007617509438333
0.005383380088035371
0.007057255998119974
0.009057013090125465
0.01140972782599165
0.01414123441748505
0.01727580644577327
0.02083647230048807
0.02484526711578205
0.02932287204806687
0.03428802751043614
0.03975688004052687
0.04574210259066454
0.0522518648480467
0.059288758061963
0.06684878621075889
0.07492058803203801
0.08348507252495868
0.09251563221478458
0.1019789726268489
0.1118362713152315
0.1220436892615429
0.1325499004171179
0.1432855245978759
0.1541328028268949
0.02739316227307971
3.422151387850949e-15
5.187088298534069e-13
9.826250124491191e-12
7.237739331349644e-11
3.240186141599805e-10
1.072716845419833e-09
2.894983361381116e-09
6.713350644773137e-09
1.379597156133574e-08
2.564316497348554e-08
4.382341784509614e-08
6.990483363873011e-08
1.055684585922335e-07
1.528281910945389e-07
2.141819970680528e-07
2.924003046072753e-07
3.905241347454166e-07
5.113525837629691e-07
6.580708697479434e-07
8.33890255860684e-07
1.041943076224302e-06
1.285420680580162e-06
1.568079772957978e-06
1.894897273704626e-06
2.271252669332333e-06
2.699089752987771e-06
3.175330199144082e-06
3.689565509661938e-06
4.229811726603891e-06
4.799264187117301e-06
5.411059922656155e-06
6.069135458010622e-06
6.77746442781235e-06
7.539996452465961e-06
8.360584024945373e-06
9.242916380245595e-06
1.019046078051602e-05
1.120641562294884e-05
1.229368404804987e-05
1.345488078726243e-05
1.469237852492895e-05
1.600835056061718e-05
1.740472947393783e-05
1.888305161676207e-05
2.044420031757532e-05
2.208803500299513e-05
2.381289031874766e-05
2.561493972442469e-05
2.748740695545903e-05