/*--------------------------------*- C++ -*----------------------------------*\
| =========                 |                                                 |
| \\      /  F ield         | OpenFOAM: The Open Source CFD Toolbox           |
|  \\    /   O peration     | Version:  v1812                                 |
|   \\  /    A nd           | Web:      www.OpenFOAM.com                      |
|    \\/     M anipulation  |                                                 |
\*---------------------------------------------------------------------------*/
FoamFile
{
    version     2.0;
    format      ascii;
    class       volScalarField;
    location    "0.00000054";
    object      omega;
}
// * * * * * * * * * * * * * * * * * * * * * * * * * * * * * * * * * * * * * //

dimensions      [0 0 -1 0 0 0 0];


internalField   nonuniform List<scalar> 
44064
(
1142152.231591521
209434.0237745237
73038.70533436938
35082.78104765204
20252.56935590085
13210.98378554414
9450.447477051815
7288.791531768123
5980.18823344288
5150.467463679644
4597.715102740579
4210.633103544944
3921.136724678777
3686.646928932047
3482.760315927329
3291.409916847639
3101.218635187804
2903.09949952365
2691.99354291319
2472.262956857576
2252.870845551817
2040.343077426974
1837.963821431863
1647.348214510929
1469.583634068117
1305.422202151417
1155.063893917183
1018.810862802947
896.4114570540065
787.1447637839473
689.8773796389969
603.4929827138332
526.8528141712195
458.8441632089819
398.4365312513902
344.6519844946939
296.6084359197373
253.6307104221437
215.1016039806192
180.6065532308885
149.9674368706698
122.9368811198462
99.3626162523267
79.17941883658841
62.24280110316658
48.3491340880487
37.23564431692351
28.6027918132703
22.11793572799195
17.41525662728907
14.09984092093284
11.8116862657904
10.2881491066737
9.331629476575236
8.743516010971533
8.38446448095524
8.180447635809386
8.079298718290264
8.032906080022517
8.008348839522704
7.996479303736211
7.991977049018621
7.989997732299347
7.989129180162335
7.98882823654179
7.988729540950715
7.988693562543132
7.988681209426665
7.988676767388942
7.988675122799401
7.98867409083609
7.988673441824645
7.988672978008702
7.988672070548271
7.988670615597927
7.988669717122335
7.988668474856148
7.988667098990218
7.98866555725139
7.988663887166563
7.988662093401354
7.988660193070684
7.988658229840717
7.988656142174095
7.98865406451681
7.988651899127913
7.988649746582658
7.98864752721583
7.988645456633408
7.988643114636866
7.988641377956893
7.988640278634088
7.988637889081243
7.988635677340874
7.988634692531125
7.988633829207204
7.988632958666021
7.988632140551227
7.988631633089812
7.988631462583184
7.988630713508647
7.988582830487107
7.987245685572621
7.978485960096261
7.968881889148355
8.081176873238141
8.161308201717167
8.460405049077675
1142163.08112193
209364.2529307174
72946.52199709351
34964.18223249082
20104.99267744392
13036.40863158252
9255.513172076871
7085.256175251336
5783.011133136863
4971.969184770236
4440.918024165139
4064.061718628136
3764.567742309707
3499.492017767931
3242.173656307816
2979.207624064014
2709.743388983838
2439.972948943009
2178.825409916245
1934.204456207201
1711.359098373352
1509.816706046226
1329.456357574136
1170.516001115559
1032.086972237365
913.8090951000656
814.6754644487092
732.2839062203241
662.2494399734776
601.1137976322246
547.1197095508486
499.0180832333447
455.8734688360695
416.9254536398124
381.5962259583649
349.5197611614522
320.2563840450038
293.344274533947
268.2710113285465
244.5431637004986
221.8478413508821
200.1623785978848
179.7382642489541
160.6519337155733
142.63736849529
125.4955741095695
109.2437685682821
93.73064787725642
78.87321798019921
64.78344097799645
51.77267164795664
40.16650345083116
30.26769621373533
22.26126316003845
16.19664225177907
11.97312177683026
9.305941233343239
7.843873219667347
7.152246832039543
6.870754411995248
6.780384487396522
6.749946355854843
6.739159711321173
6.736191286290592
6.735279793083162
6.734987473684788
6.734906365564049
6.734879266711119
6.734865150653386
6.734849736432356
6.734832489501868
6.73480944054445
6.734782726450965
6.734751273535477
6.734714333506475
6.734668437661411
6.734617047826781
6.734558762174689
6.734495248441829
6.734424959164068
6.734349386826533
6.734267319901922
6.73418017275115
6.734087015870335
6.733989177400488
6.733886079672026
6.733778957104028
6.733667275043168
6.733552356022247
6.733433923467024
6.733313006996246
6.73319378460659
6.733071536014876
6.73296460151985
6.732873535562247
6.732790141131177
6.732716444761494
6.732646475618459
6.732594333093573
6.732564815652531
6.731983828977375
6.728060704903565
6.724615818670043
6.756207488298254
6.824162899332522
6.913585953782619
7.002692367995971
7.190053465329964
1142163.686557217
209367.4738615641
72955.63642681119
34982.13580594108
20133.52681853243
13075.39534202295
9302.316245512608
7134.07693070223
5824.231261314577
4991.90907311488
4422.890059276347
3990.832333857426
3621.93313211897
3278.235441566975
2952.825091615579
2641.913250862046
2351.489104882583
2085.276472886279
1846.952396995454
1635.417130120936
1447.697276747773
1281.499502055708
1133.953147021166
1003.048963469601
888.4416583237431
790.2034191304971
707.7246897526695
637.8687022813821
576.5812505150476
522.5278563550117
474.6011071547929
431.9830939207183
393.9726757524246
359.9019223278964
329.3192100578071
301.8053809898088
277.0294155763914
254.7406280349529
234.6602487716047
216.4878489543662
199.9508384845285
184.8183655582572
170.961747427626
158.1650894985561
146.1431775566002
134.5995090073564
123.2835461578843
111.9939814004467
100.629283590099
89.48844371295152
78.86787713963363
68.58426984550267
58.39501981529253
48.38116212930878
38.79628491197867
29.99354715870471
22.27994618355088
15.9968452708451
11.36203167428301
8.359340913116652
6.767716486270825
6.133988985506718
5.944387919837035
5.897080931839144
5.886435750740324
5.884143709391076
5.883655596812843
5.883536118383641
5.883490450599705
5.883454443090861
5.883420801445061
5.883381638682402
5.883340418909826
5.883292350962838
5.88324068243564
5.88318114805735
5.88311739041254
5.883046181006214
5.882970453473367
5.882887200999844
5.88279907327827
5.88270360713038
5.882603131674294
5.882495639789514
5.882383218115038
5.882264396084304
5.882140974778884
5.882011869900049
5.881878945925926
5.881741613221568
5.881601117414273
5.881466687013988
5.881329154442405
5.881205580252937
5.881097616506686
5.88099457604114
5.880899323480014
5.880831079149383
5.88065162420625
5.879007868337276
5.8776894981285
5.898523115767761
5.952177144231351
6.024386750459981
6.14461496888862
6.325028873266992
6.581752883100462
7.197017791744398
1142163.538055833
209366.6062475541
72952.92237469606
34975.77271372567
20120.88172539471
13052.94293862233
9265.940706234574
7079.881482793056
5749.555568475914
4895.792833540696
4305.997151014749
3855.788584328106
3474.118958674613
3125.16318270247
2799.009196821493
2491.74057099992
2207.496270522727
1950.368887342827
1721.757322127901
1521.225344043936
1346.328820018406
1194.127430439072
1060.706645489461
942.9040775697337
839.2033893287525
749.232677607056
672.6797365037689
606.975204882257
548.8218437730862
497.1080130780461
450.9672399840874
409.7186494251848
372.7819238691789
339.6584827610528
309.9179115870084
283.1865763659844
259.1388824729468
237.4665265246793
217.9131580400681
200.2653075878297
184.2974589217197
169.8534340394295
156.8227083124694
145.0812504890765
134.4362303328692
124.7393013385874
115.8089091801625
107.4870261152922
99.60527622625506
91.98043131964607
84.41876992827592
76.70998751273238
68.82912019708164
61.10604522190356
53.50593289378252
45.76393091616957
37.87893752440272
30.10021613665531
22.81089044075184
16.40633446373191
11.34411487638048
7.925402742823557
6.125262860128671
5.473847916330573
5.310318727624585
5.27727588819679
5.271309874870894
5.270289548891762
5.270099768107013
5.270035095520088
5.269989220386126
5.269940499196069
5.26988983196713
5.269832128367797
5.269771768645445
5.269703954551343
5.269631908690451
5.269552317676486
5.269467962016259
5.269375925505979
5.269278759274004
5.269174054667469
5.269064106740021
5.268946965950662
5.268824671747795
5.268695860517987
5.26856236918365
5.268423157579067
5.268280083010934
5.26813277493173
5.267982594364995
5.2678371967718
5.267689536340174
5.267553712970538
5.267432589916123
5.267318956357433
5.267189887503716
5.266519196281445
5.26492594999771
5.276616813164948
5.317606912616383
5.385702397975032
5.511223933531197
5.741040703073834
6.17030187444904
7.010200879775796
8.834575666735828
15.66896262451128
1142162.871988875
209362.9219985598
72942.33032020972
34953.97564789176
20083.73342800952
12996.91182342715
9188.820604889932
6981.842684076978
5634.127660274928
4769.838536901432
4178.33188838044
3735.346519234302
3368.476908443557
3039.972551694011
2738.894074074895
2457.301442101974
2193.551569302249
1951.697890130097
1731.696718670095
1533.413743687376
1357.187244072081
1201.750311110448
1064.566954993776
943.1688465246505
836.3557404603598
743.7547992808451
665.3390642699102
599.034323979909
540.7975278115421
489.1678854005405
443.1839367612724
402.1152102477182
365.3531801229593
332.3837764225894
302.7680937638898
276.1280674136306
252.1355605583994
230.5039903324285
210.9820176614789
193.3484296042298
177.4078736079292
162.9882332968107
149.9382361138958
138.1250996321619
127.4189122156747
117.7180170336986
108.9237350705198
100.9694388464863
93.77685885116843
87.19661420161593
81.07557259814362
75.24916344877768
69.55002531714565
63.8203814924292
57.89499682418086
51.87250172101543
45.87665011845549
39.64177748788303
33.05013820213906
26.26551929387378
19.66829984657367
13.76752953590817
9.18325512335795
6.357198364874952
5.177282947440479
4.873447789998179
4.817708184331224
4.808966859229654
4.807689629295687
4.80748277517716
4.807416644524766
4.80736301719338
4.80730867383236
4.807248064043308
4.807184023853281
4.807112850186972
4.807037199789885
4.806954404265469
4.80686638550841
4.806770832015049
4.80666981538559
4.80656131540982
4.806447119539845
4.806325592317946
4.806198542789231
4.806064510128563
4.805925393900603
4.805780798319684
4.805632441081217
4.805479538686764
4.805323508977109
4.80516987084162
4.805014455237944
4.804870558671983
4.804731049863109
4.804330414315814
4.802922441052579
4.807813538739344
4.835295214901318
4.883017342946305
4.953888862469425
5.082339681693584
5.296097584574854
5.642845896971521
6.201715379521875
7.100908449143189
8.524183427022489
11.68687731862807
1142162.306383783
209359.851044928
72933.46980295253
34935.81728814241
20053.01328450427
12951.01921372449
9126.381035082939
6903.557414524473
5543.608211255917
4673.725765202835
4085.215789093657
3653.912962154509
3305.48114316295
2998.457632215103
2715.462793470826
2449.343349786467
2197.680856679655
1962.988906061307
1746.114356278474
1548.132193197455
1370.185034735314
1211.944135450429
1071.676766507514
947.3376619722317
837.8276116033755
742.8096574885901
662.1707889529778
594.358238800521
535.702191990055
483.9292936057922
437.973953028716
397.0424044948065
360.4838028585953
327.7546182979016
298.3948344425902
272.0110841829193
248.2643284188894
226.8605537433311
207.5434604959461
190.0885617804893
174.2983449352348
159.9985130056434
147.0351907975679
135.272772447275
124.5922539693902
114.8903566411064
106.0784162015268
98.07180194359468
90.80318397263868
84.17893310217239
78.16324127987453
72.66001219789311
67.5477334587008
62.67623051468371
57.90897362118268
53.1056913947432
48.15718817975522
43.16907257385471
38.1460743620919
32.7325690450084
26.84654012002683
20.69354028892988
14.73283508240834
9.689993240199446
6.33752154456732
4.876883866896669
4.514714117721812
4.455324274338773
4.447184778091423
4.44613823851716
4.445975898777159
4.445911034510543
4.445853785177344
4.445791896268429
4.445725950738609
4.445653403726162
4.445576175184001
4.445492219875211
4.445402797688565
4.445306089846166
4.445203297227573
4.445093152404744
4.444977244544145
4.444854499424559
4.444725881564058
4.444591682749953
4.444452159382976
4.444306003615806
4.444154169177216
4.443998752412846
4.443840580538834
4.443688065188036
4.443522938372981
4.443161527124632
4.441963611783372
4.443536562152283
4.46015113780492
4.492092150303852
4.538877417272474
4.614554719985825
4.731621077142219
4.910390967197433
5.175013404033761
5.558609833471646
6.104775056540253
6.861961731511742
7.854272609829665
9.718082026229824
1142161.891129003
209357.574456916
72926.88385719768
34922.19935675371
20029.65093136023
12915.44685576809
9076.754328900708
6839.257908010572
5465.946969975722
4586.254051378731
3993.198349650684
3563.209479172582
3221.422547793333
2925.027153656282
2655.015051156364
2404.362399868408
2168.045804302843
1945.248939200754
1738.230200999711
1547.10931386274
1373.018335786549
1216.338366188521
1076.138878781131
950.9881656674208
840.1649560733501
743.679385598965
661.5270293905085
592.6063935180688
533.6752179675156
481.7827469686913
435.7973845234502
394.8905786065521
358.3916577710391
325.744836331853
296.4815207904697
270.2014601833286
246.5596017006103
225.2565177350496
206.0311138960765
188.6548065284713
172.9267819161539
158.6702310426717
145.7294860209921
133.9676777568621
123.2647356458817
113.5156869176118
104.629069709166
96.5253942736327
89.13605565389918
82.40231990961206
76.25580507564575
70.64522198602009
65.56490008466024
60.93299246886468
56.61491595924435
52.45533415524037
48.31186699177488
44.10823994364712
39.85925890259922
35.56843351743004
30.99673636400973
25.84823545530343
20.18916375719028
14.42176038349253
9.33111727388974
5.911119552713136
4.508885321642826
4.204332368080599
4.161190297188649
4.156019422641489
4.155416988001281
4.1553081263087
4.155246120684795
4.155183228829032
4.155116460947525
4.155043219613741
4.154965320175091
4.154880862349545
4.154790858514206
4.154693715469447
4.154590719393404
4.15448066790794
4.154364799094832
4.154242066453605
4.154113690963031
4.153979009546529
4.153838482529258
4.153691653376511
4.15354037251213
4.153386085000119
4.153205277876448
4.152772818988523
4.151642099484709
4.152652776135951
4.16404261986657
4.185503521361977
4.216675150389151
4.266294685902881
4.338723276079159
4.443345493537425
4.590869245676526
4.795028890673981
5.072286494482181
5.44196772332182
5.924049908040622
6.531765447858096
7.254654876282153
8.557783093258145
1142161.53118326
209355.5792187405
72921.17301092559
34910.48045867681
20009.71822664078
12885.3968989361
9035.287035828747
6786.133293506963
5402.525564378149
4515.795190203807
3920.543593691129
3493.889712190191
3160.548938432671
2876.236769460686
2619.707123755399
2381.937687433546
2156.608725829791
1942.131697815169
1740.290892251802
1552.428540918957
1380.049171999345
1223.753360035045
1082.978224480692
956.6462452872372
844.4489777880133
746.3795192649195
662.5391964526738
592.3435409758494
532.9931233665327
480.8654181964753
434.7488792073852
393.771987222857
357.2414656982007
324.5896518922464
295.341263598393
269.0915018904197
245.4913981622801
224.2376639181172
205.0652085067311
187.7413339232694
172.0611870622506
157.8442700606318
144.931901713625
133.1850870957571
122.4825421813292
112.7188858072289
103.8029592042053
95.65615313422819
88.21087706285013
81.4093146520874
75.20249456161645
69.53249956337461
64.36418180546617
59.66356377538454
55.39611474403503
51.47221291073951
47.7386184806092
44.05139965910264
40.31736138811383
36.54678970248852
32.73902749970572
28.68634566417027
24.03147271688283
18.74677294697063
13.19725696513906
8.281615851719753
5.191641406659194
4.127379822988848
3.941220810606926
3.918788194924256
3.916407994185743
3.916132323373929
3.916055557087811
3.915991386091515
3.915924313764027
3.915851021154793
3.915773143322918
3.915688912206674
3.915599246302233
3.915502650645625
3.915399996216466
3.915290216895102
3.915174565095188
3.915052218303387
3.914924012421603
3.914789936293197
3.914650692426238
3.914497199428035
3.914239799469044
3.913597687682169
3.912651064664674
3.915086633698094
3.925534021865035
3.940808191728127
3.962889827686921
3.996623002181743
4.044692294754904
4.112103684368252
4.203847960071524
4.326559081255887
4.48824843918465
4.698505700046375
4.968358670318781
5.309761595494413
5.734121247795867
6.249498484218755
6.857570165481874
8.036673665680135
1142161.264533321
209354.2141942937
72917.108236343
34902.04889116563
19995.31464756475
12863.62892475238
9005.179739657555
6747.443667689082
5356.120982533558
4463.88585527152
3866.488739546419
3441.539134878417
3113.335092624971
2836.246072338186
2586.921323349783
2353.359376511346
2132.536787754596
1922.474141455878
1723.869049129098
1538.974781737118
1369.762541302159
1216.533958783552
1078.454259084532
954.2059749806435
843.2181686265187
745.5757405635055
661.5554375760869
591.1237495501596
531.975312516092
480.0482617110029
434.1056246855466
393.2657559204324
356.8381998935103
324.2625320922729
295.0718268967242
268.8687276348703
245.3096747222446
224.0943294071721
204.9583724591786
187.668293729701
172.0173407586664
157.8225825519455
144.9229382117703
133.1775334585067
122.4639397229415
112.6763869052137
103.7240040209796
95.52901994607342
88.025077731073
81.15558357833623
74.8721385169307
69.1330977812856
63.90304686185641
59.13502494253625
54.77065639377184
50.73362359538199
46.99412228740604
43.49122137307521
40.10882072151481
36.76548013025153
33.4094533431849
29.97297862640553
26.25605814764539
21.88672619148532
16.78799240469181
11.39630838426998
6.85105910202291
4.431999947091528
3.809271111738101
3.724976259798986
3.716258464347041
3.71540925385608
3.715285024275556
3.71521742402913
3.715150130673848
3.715077020673243
3.714999228038909
3.714915407550115
3.714825857008413
3.714729887312842
3.714628846097014
3.714521257132614
3.714407055001438
3.714283883726381
3.71413900544263
3.713883415546156
3.713376775711964
3.712573088466401
3.713379558584018
3.720050760094038
3.729810824335349
3.740322880029163
3.757396063182571
3.781850467816288
3.815761132270336
3.861910986209113
3.923171528116345
4.003153025521222
4.106106364641329
4.237191838069952
4.402569265708408
4.60947563122442
4.866223376818729
5.18212232711208
5.567443264956669
6.034106800637434
6.599451905247532
7.780548418493865
1142161.015009113
209352.8617581441
72913.19338552906
34893.97545099143
19981.53081887056
12842.7540439979
8976.17308638744
6709.861327148685
5310.441791176009
4411.756476295118
3810.665320208457
3385.470502337562
3060.550916714721
2789.722539634617
2548.446602990218
2323.551265055451
2110.95272465445
1908.05312059087
1715.17556988382
1534.431878352269
1367.735611208216
1215.891713181615
1078.450882139644
954.3662081463681
843.2570384176828
745.3505585368661
660.8781351123472
589.8832172353287
530.4171249525428
478.6317120375741
432.8879348561725
392.2614271411576
356.0384772563267
323.6475334277083
294.6180672813835
268.5534943659219
245.1132078626285
224.000497706797
204.9543170832941
187.7434515898279
172.1623202779998
158.0281290430248
145.1791512590902
133.4733542437822
122.7870717652628
113.0136166747454
104.0616551529954
95.85345729449836
88.32297144397643
81.41386243117321
75.07768676063552
69.272091549534
63.95896817728981
59.10243741533937
54.63280253536281
50.50937555107803
46.69393826444373
43.15523387851127
39.83097260700492
36.66582870790287
33.57628509455961
30.48140782291902
27.2761062258864
23.71447198713551
19.43315722973154
14.37709121747361
9.192673592357709
5.357265188237224
3.842593302370122
3.575410166797278
3.546815036528363
3.544200729175487
3.543934523604968
3.543856670657814
3.543788940996134
3.543716268063745
3.543638806357158
3.543555270143137
3.543465603575782
3.543366862833587
3.543240425433548
3.543027444365831
3.542685425147057
3.542118952281493
3.541696270159874
3.544463077828686
3.551503309998313
3.557094793313982
3.563056299442135
3.573221305790082
3.587448423972377
3.606257510183246
3.631613845453794
3.665023266972484
3.708262749993975
3.763468109990229
3.833138708797657
3.920260954885667
4.028390014709503
4.161760030599349
4.325383028441986
4.525141045411308
4.767871354141842
5.061468330437836
5.415080038475205
5.839563569154938
6.348256666194274
7.380976165697536
1142160.785425848
209351.6030554515
72909.56435281043
34886.51433391994
19968.81980824126
12823.54095509387
8949.519323313551
6675.358452390914
5268.485947141743
4363.764885635763
3759.05505712323
3333.334719748445
3011.148755552506
2745.927124024514
2512.180378367635
2295.711348543738
2091.401970501043
1896.008596884166
1709.424267757448
1533.538428017122
1370.240379585596
1220.435873190145
1083.806499518022
959.7151301725469
848.1154397429
749.4476001942046
664.0345906475267
591.9907667245334
531.7456629571039
479.7519991901488
433.8969993209523
393.2036531529051
356.9262383857823
324.4768208630148
295.3784869574342
269.2343967484816
245.7070825451954
224.504425478518
205.3700091326609
188.076341803315
172.4200629638578
158.2190285609216
145.3109562622055
133.5525228560212
122.8183253539439
112.9997021780224
104.0034077793342
95.74992212020314
88.1715871270895
81.21092646967416
74.81916403297296
68.95419672741801
63.57845643392945
58.65727834045776
54.14818153709879
50.00196874606068
46.18898658140826
42.67560383761828
39.4266583031774
36.39087494584199
33.49442759854123
30.6617299923391
27.8024233741143
24.77401011528905
21.24180296187994
16.84132106018145
11.69147073593709
6.90211887231709
4.178376761493699
3.487158973042107
3.403674436878865
3.396221684208558
3.395579966014965
3.395467145745591
3.395368255959862
3.395230938616579
3.395026715024292
3.394741395682369
3.394357052986488
3.39395920633925
3.395010773107977
3.399977859387616
3.405440074207964
3.407375215670744
3.410059154105236
3.415212789134605
3.422827567328449
3.432171335166513
3.444046018953735
3.459624577842481
3.479696200393131
3.505168212228003
3.537228324835425
3.577221014327472
3.626711735384519
3.687545033997747
3.761899430138587
3.852357032259325
3.961980673165268
4.094402767566076
4.253925489958378
4.445637352033062
4.675560238079639
4.950861317320891
5.280203166701401
5.674362887140667
6.147301256526347
7.119029942812601
1142160.557551501
209350.5218570364
72906.2185808451
34879.49877808932
19956.78317798613
12805.29428256172
8924.173646905037
6642.535538110885
5228.587923423598
4318.208869122983
3710.292913766754
3284.563122363067
2965.77964487185
2706.939400545778
2481.363242817942
2273.361315001809
2075.330767706263
1885.513453480236
1703.891802665392
1532.000877119608
1371.613478669249
1223.714589642917
1088.242585559067
964.5212329781293
852.6673294247211
753.3511390534394
667.047580167429
593.9568475284135
532.9038123285666
480.692169221361
434.7337201579318
393.9907440396541
357.6819240965809
325.1995193336856
296.0570248628104
269.8546500063753
246.2561812580668
224.9731801920252
205.7540682956663
188.3764358202647
172.6416841671829
158.3716426355571
145.4068750804973
133.6056481687282
122.8429586313875
113.0094593084444
104.0101511618934
95.76290420540211
88.19686963519275
81.25071734242047
74.87075376216806
69.00969002012165
63.62558141746703
58.68039903116319
54.13953679032885
49.95666556401497
46.09783582869859
42.54076564578668
39.26803391073788
36.23260382967693
33.36986805710222
30.60193725235378
27.84070567031096
24.99873423506069
21.92947475728384
18.32135682660855
13.84423138848383
8.789308301111127
4.894512215954467
3.486856458925914
3.28649999740004
3.268326097335217
3.266550048324445
3.267625405667021
3.271797893381136
3.275478656674599
3.276138989739025
3.276474937682631
3.277201988678077
3.278748905921345
3.281569949653676
3.285785283983727
3.29076540564918
3.296247462534869
3.302955821025546
3.311507608354787
3.322296463204133
3.335671205692539
3.352163178096303
3.372443099482274
3.397262911956955
3.427489960374636
3.464143852611947
3.508417532472509
3.561710176733452
3.625668287687358
3.70223477160274
3.793708175585761
3.902814146425384
4.032792950380689
4.187509924835059
4.371602707162424
4.590694570765258
4.851736574091058
5.163615083282798
5.538333802174222
5.993530759577641
6.956243318521826
1142160.489060022
209350.3183595601
72905.36861706999
34877.56320957161
19953.29914757762
12799.79449664248
8916.232866282964
6631.868792062408
5215.193070099112
4302.505816415303
3693.147720283022
3267.121627282705
2949.113610725009
2691.527422543514
2465.647692588973
2257.359433676042
2059.741292441849
1871.808231814774
1692.766492891326
1523.419840601475
1365.141495579953
1218.986879605706
1085.198562322467
963.264312047211
852.7701082835557
754.2686727537786
668.317846077862
595.2217266342384
534.0736193854336
481.9368777352398
436.0383814653617
395.3283615320033
359.0200511564416
326.5040759225993
297.2950399634587
270.9963068377908
247.2762535115661
225.8519648004514
206.4777934593194
188.9372020667496
173.0369431636719
158.6034031663047
145.4807781275048
133.5300644749753
122.6280219863144
112.6660104675653
103.5486988425747
95.19266998584973
87.52501860293081
80.48201212170545
74.0079823425104
68.0545508532567
62.58033689215108
57.55160867924516
52.94486360860657
48.75143411960089
44.93725959436598
41.45724121550656
38.27511864355689
35.38156163298967
32.74520847374068
30.30537530770489
27.96199351592541
25.47085739500033
22.1726198617383
17.14565495578326
11.88453393576196
7.994491670459595
5.640379059129855
4.481770643987159
3.917860952253851
3.620414019706052
3.45228879186032
3.352974226730256
3.292739061099628
3.255489154605974
3.232177975593475
3.217799260318111
3.209437195522331
3.205361012216185
3.204533307457222
3.206315457419567
3.210315239654619
3.21636938899512
3.224528502546407
3.234975548718016
3.247980902219612
3.263896541264276
3.283168541738513
3.306343711142347
3.334075645234058
3.367137979396647
3.406443211012375
3.453065693433981
3.50827040528539
3.573548620255843
3.65066198945705
3.741697177753817
3.849134392466786
3.97593511350465
4.12565830615779
4.302621868788656
4.512140847428198
4.760902313437651
5.057590858315987
5.41397602731004
5.846820373786835
6.75948931051882
1142160.342344468
209349.2587126567
72903.13840447202
34873.46568439917
19946.58691781079
12789.73107261104
8902.171265767798
6613.359168027077
5192.155147442702
4275.40149869541
3663.057492580454
3235.640900946259
2918.101567930918
2662.774550051032
2440.520734581967
2236.403226689388
2042.689796360832
1856.950736355364
1680.641597773232
1514.261690140145
1358.787022265451
1215.164936641914
1083.171340836949
962.3967573983251
852.5915765922223
754.3420273121637
668.3098314954162
594.885010479362
533.4338004420489
481.264748727884
435.3643876798488
394.6593210638911
358.3511994558393
325.8253070727329
296.5945697696048
270.2629902465418
246.5009766705963
225.0285565150196
205.6035339985844
188.0131936344417
172.0683168627847
157.5994063885418
144.454649813812
132.4988764080671
121.6126793752436
111.6917783631358
102.6464476455753
94.40087149904097
86.89192009997616
80.06809728897748
73.8895349221484
68.32993566063408
63.38138274176659
59.06362858903232
55.32079687002195
51.97758673713746
48.80527906366406
45.57245055119458
41.98688250484962
37.74794526087111
32.86750715971085
27.94620580879581
23.62246843038787
19.84580976431419
16.41036506960264
13.3387700703924
10.78713689626958
8.819724636406891
7.368048902914824
6.314775957993933
5.546219917088849
4.977585451073406
4.550846518066349
4.226745431067169
3.978368993682525
3.786875760362931
3.638792309668239
3.524295822198116
3.436097253245912
3.368708219928878
3.317951015802056
3.280625094452581
3.25427736755725
3.237042689671529
3.22752893018794
3.22472986096531
3.227959557814651
3.236804281647525
3.251088126485052
3.270848821241292
3.296321650962815
3.327933748141236
3.366303586040302
3.412248656052978
3.466800958655737
3.531231078506344
3.607081991966421
3.696214585555492
3.800868003892998
3.923739716734834
4.068093387733712
4.23790797051342
4.438091009745301
4.674795956079151
4.955914803251673
5.291885014879363
5.69714362727264
6.547795008964175
1142161.029773556
209353.3544550832
72915.3226709134
34898.63376179183
19989.07123863452
12852.79264261716
8987.561048361933
6720.915858404715
5319.508675613567
4417.917760474166
3814.181008006
3387.677515449728
3063.286257362964
2794.339061160029
2553.502715081418
2328.064319445314
2112.439345153466
1906.173769595737
1712.281477370389
1532.668298628008
1367.884545731808
1218.026857439652
1082.592053523713
960.2504790382649
851.078989528789
755.5035424568998
674.0803338999968
605.7123932382923
546.7479744767693
494.4618716801988
447.7529612928509
405.8736742061092
368.2611845620102
334.4655108654105
304.1059399442115
276.844119914583
252.3698567464014
230.3954702192056
210.6546861650905
192.903282991714
176.9199408979104
162.506976889196
149.490814399728
137.7219755591339
127.0744945554205
117.4415816944666
108.6545254168355
100.5016603017043
92.8134279527501
85.46780164525322
78.3828746012843
71.51253889070587
64.85397470747714
58.46768237734831
52.48177636434178
47.02825347703258
42.13747424328383
37.65774506594507
33.46671289104518
29.55446498294138
25.94092457948697
22.66291617517618
19.74484118329723
17.18144917229058
14.95171980953087
13.03235117663441
11.39890814147127
10.02252923296196
8.870438250224943
7.90919216685672
7.10756773393483
6.438430379662726
5.879055438816771
5.410724658545369
5.018167428242328
4.688963284019572
4.412995472902481
4.181995966227555
3.989176184468731
3.82893247044699
3.6966141680132
3.588342751074713
3.500872058902286
3.431481333765468
3.377894174161096
3.338217750428612
3.310897844492179
3.294686177667684
3.288617250524233
3.291992520824267
3.304370440189087
3.325561506873128
3.355627895318344
3.394887552859652
3.443921385908442
3.503594402293682
3.575077807178988
3.659883419807819
3.759911001042054
3.877512012859529
4.015574256178017
4.177632043659441
4.368003786383998
4.591944462227331
4.855746629295494
5.166534493913537
5.530825766850679
6.251831524646088
1142166.568524871
209383.5037648509
73001.06954210051
35071.16959415103
20273.90197321341
13266.06973271418
9533.487481124981
7390.289239968072