/*--------------------------------*- C++ -*----------------------------------*\
| =========                 |                                                 |
| \\      /  F ield         | OpenFOAM: The Open Source CFD Toolbox           |
|  \\    /   O peration     | Version:  v1812                                 |
|   \\  /    A nd           | Web:      www.OpenFOAM.com                      |
|    \\/     M anipulation  |                                                 |
\*---------------------------------------------------------------------------*/
FoamFile
{
    version     2.0;
    format      ascii;
    class       volScalarField;
    location    "0.00000054";
    object      p;
}
// * * * * * * * * * * * * * * * * * * * * * * * * * * * * * * * * * * * * * //

dimensions      [0 2 -2 0 0 0 0];


internalField   nonuniform List<scalar> 
44064
(
0.08601750080990607
0.0860173765254232
0.08601724624089248
0.08601711854275497
0.0860169880505203
0.08601685218549705
0.08601671036968452
0.08601656180313796
0.08601640592935152
0.08601624179020832
0.08601606886640943
0.08601588628540405
0.08601569375050562
0.08601549078790958
0.08601527772721168
0.08601505504955982
0.08601482439738439
0.08601458796535023
0.08601434919104425
0.08601411143293372
0.08601387771506014
0.08601364910946664
0.08601342469063553
0.08601320040645279
0.08601296975927543
0.08601272365218506
0.08601245154784187
0.08601214120398662
0.08601177987315613
0.0860113543172331
0.08601085166632069
0.0860102584917521
0.08600956110713896
0.08600874483011879
0.08600779445443833
0.08600669336434613
0.08600542333083164
0.08600396473707859
0.08600230605171943
0.08600044539379542
0.08599837616755635
0.08599608210049113
0.08599354288485109
0.08599073227419388
0.08598762103322154
0.08598418028085081
0.0859803808389413
0.08597619335991685
0.08597158172761807
0.08596646978138338
0.08596083111711424
0.08595554855729262
0.08595081265108044
0.08594529289069987
0.08593826999623652
0.08592997982003914
0.08592092049152944
0.08591141715787688
0.08590174978325435
0.08589190890357522
0.08588137642343684
0.08586960871009125
0.08585648413100659
0.0858421878067101
0.08582678444107587
0.08581015874235082
0.08579217332786891
0.08577273731440078
0.08575175664517679
0.08572912584988915
0.08570473546609245
0.08567847311636768
0.08565022468315051
0.08561987123183645
0.08558730674474214
0.08555243545493194
0.08551515158363232
0.0854753545798151
0.08543295339371468
0.08538786823414046
0.08534003507539437
0.08528940909629837
0.08523596872443073
0.08517972098173533
0.08512070983629133
0.08505901928106811
0.08499478654220612
0.08492821660591654
0.08485959026671171
0.08478926216950737
0.08471771076077152
0.08464530508760071
0.08457242220815564
0.08450051286398017
0.08443201314467071
0.08436913121522395
0.08431396204186198
0.084269105470804
0.08423770365436647
0.08422363291126841
0.08423190528995655
0.08426821211956968
0.08434079578973587
0.08446166711708444
0.08461476164812926
0.08496478257644331
0.0865268593182615
0.06705272987713701
0.08126590805420875
0.08126591333267506
0.08126591847817534
0.0812659225025644
0.08126592574515412
0.08126592855591157
0.08126593115747908
0.08126593397742726
0.08126593743796383
0.08126594229484872
0.08126594931556654
0.08126595970831965
0.08126597482395187
0.08126599669702664
0.08126602773113352
0.08126607119289599
0.08126613083748303
0.08126621169697579
0.08126632011442195
0.0812664632294554
0.08126664759185849
0.08126688037393136
0.08126716867219208
0.08126751968766806
0.08126793922261541
0.0812684310103873
0.08126899534107856
0.08126963167625718
0.08127034121213514
0.08127112911766293
0.08127200225544083
0.08127296798541787
0.08127403300939472
0.08127520489527991
0.08127649134473192
0.08127790072139277
0.08127944203415061
0.08128112794437857
0.08128297014370212
0.08128498101601685
0.08128718150437095
0.0812895850525386
0.08129216132513538
0.08129487391434578
0.08129774422847205
0.08130082098060067
0.08130414217587691
0.08130774766805557
0.08131170380686947
0.08131610459973253
0.08132083645822137
0.08132489047566646
0.08132830817462124
0.08133245635976212
0.08133794409833001
0.08134449310517469
0.08135113003716414
0.08135762090040297
0.0813643978560966
0.08137146922649312
0.08137889269561824
0.08138691939171191
0.08139576120747795
0.08140545972453514
0.08141596180831398
0.08142726779267831
0.08143944792534361
0.08145257324262518
0.08146670060206458
0.08148188479965056
0.08149818304443179
0.08151565174276149
0.0815343458678892
0.08155431434508448
0.08157560058706805
0.08159824138754983
0.08162226213358617
0.08164768316342118
0.08167451330031594
0.08170274736275149
0.08173236446387308
0.08176332682666755
0.0817955781807955
0.08182904309126268
0.08186362725864739
0.08189921774791439
0.08193568393212958
0.08197288121279181
0.08201066032788271
0.08204886594217305
0.08208743244125345
0.0821264067924964
0.08216577835174106
0.08220511902781581
0.08224344631227971
0.08227990243476468
0.08231408596459505
0.08234573238429685
0.08237496377221684
0.08240151189621998
0.08242385136005033
0.08244325368802644
0.08245179102820403
0.08242991254691269
0.08233110260670548
0.08243258687204001
0.0858859029434135
0.06313293773488818
0.08035731528812502
0.08035731460838143
0.08035731344976735
0.08035731197837184
0.08035731041018776
0.08035730875878193
0.08035730706133844
0.08035730541520475
0.08035730392672638
0.08035730296888263
0.08035730277259903
0.08035730401430323
0.08035730726514696
0.08035731377161684
0.08035732467742751
0.08035734188659387
0.08035736694884277
0.0803574015171185
0.08035744542166673
0.08035749888528196
0.08035756233485031
0.08035763707915292
0.08035772380171222
0.08035782416070565
0.08035793861355538
0.08035806741961034
0.08035820942462236
0.08035836616742353
0.08035854074252197
0.08035873757151743
0.0803589591476838
0.08035920860473372
0.08035948806487525
0.08035980076437889
0.08036014872310983
0.0803605348470139
0.08036095931231109
0.08036141701010048
0.08036189739644568
0.08036239326927985
0.08036289322834088
0.08036337583449135
0.08036381225077312
0.08036418407986454
0.08036449586676661
0.08036476300524209
0.08036499632349538
0.08036520934355848
0.08036539230888262
0.08036544843305904
0.08036525965754955
0.08036479468019135
0.08036415005152021
0.08036344887646291
0.08036268534120217
0.08036189326924073
0.0803615241858654
0.0803613368473603
0.08036057738601608
0.08035930495082513
0.08035801116978877
0.08035698199312168
0.08035611349866574
0.08035516826610695
0.0803540871327445
0.08035291893676971
0.08035169510794907
0.08035041327609271
0.08034907117874342
0.08034767646191511
0.08034624090966293
0.0803447787734068
0.08034330918185173
0.08034185611665155
0.08034044031857848
0.0803390836823538
0.08033782012555818
0.08033669615816989
0.08033576413264833
0.08033508516887193
0.08033472892659624
0.08033477500137481
0.08033531253878583
0.08033644002081727
0.0803382625552754
0.08034089217789157
0.08034444023466206
0.08034900802905882
0.08035468752433525
0.0803615318399071
0.08036955041980287
0.08037887840544913
0.08038961104380531
0.08040139966122845
0.080413533458379
0.08042544883754774
0.08043672700533436
0.08044647454949022
0.08045309191561641
0.08045554780883579
0.08045044444693628
0.08043081718080808
0.0803975576752716
0.08034215382850471
0.08020557871667633
0.08024628563529046
0.08178239529456105
0.06866588675173142
0.0794576368143191
0.07945763959287819
0.07945764292000591
0.07945764661439784
0.07945765087888777
0.07945765567524192
0.07945766090162704
0.0794576666510509
0.07945767288918881
0.07945767993233756
0.07945768784052283
0.0794576971465045
0.07945770810181051
0.07945772147027555
0.07945773758341208
0.07945775723901027
0.07945778068093015
0.07945780862389487
0.07945784118962788
0.07945787919372381
0.07945792281139731
0.07945797289455223
0.07945802972733725
0.07945809446299371
0.07945816726672653
0.07945824853497316
0.07945833759925464
0.07945843556946668
0.07945854379424976
0.07945866461231695
0.0794587992075321
0.07945894985062868
0.07945911811903369
0.0794593067529287
0.07945951771006703
0.07945975410033305
0.07946001824842472
0.07946031427439761
0.07946064770824619
0.07946102676438931
0.07946145857141468
0.07946195021871238
0.07946250060332677
0.07946310062369993
0.07946374459522493
0.07946443373367934
0.07946516033442223
0.07946589782151278
0.07946660016767473
0.07946723656062646
0.07946783790288042
0.07946848289773194
0.07946919350349109
0.07946981751449178
0.07947019006071768
0.07947039215953929
0.07947061859932288
0.07947087914650497
0.07947108268754786
0.07947123067787933
0.07947137994096969
0.07947149111731613
0.07947159278808608
0.07947172975367001
0.0794718584698999
0.07947198378031498
0.07947211430088472
0.07947223390900372
0.07947233581912677
0.07947241598667956
0.07947246727368321
0.07947247957047865
0.07947244185089362
0.07947234374683536
0.0794721703713495
0.07947190197240871
0.07947152033996692
0.07947100641574663
0.07947033614053889
0.07946948410371346
0.07946842235378972
0.07946712092538753
0.07946554764879539
0.07946366872582616
0.07946144752352946
0.0794588476664382
0.07945583089549381
0.07945235437827462
0.07944838006282511
0.07944386042745505
0.07943868357272997
0.07943280734649122
0.07942628166709978
0.07941903455307536
0.07941095553727602
0.07940205450423062
0.07939232083881698
0.07938196049448805
0.07936974774270797
0.07935219678347408
0.07932926861077272
0.07929110787408861
0.07920967993856147
0.07909536142059138
0.0789584762600322
0.07902694247626045
0.08012150571566611
0.06998576990177487
0.07848494011200416
0.07848494382307079
0.07848494825763232
0.07848495289219554
0.07848495776491166
0.07848496296713817
0.0784849684586172
0.07848497430749829
0.07848498057485931
0.07848498738486462
0.07848499486484886
0.07848500316011318
0.07848501247070042
0.0784850229343541
0.07848503469521605
0.078485047783458
0.07848506227082618
0.07848507816481679
0.07848509570816506
0.07848511525417048
0.07848513738418325
0.07848516272493389
0.07848519222262654
0.07848522680890131
0.07848526729802049
0.078485313792926
0.07848536604141781
0.07848542409442688
0.07848548892683328
0.07848556157659765
0.07848564303581318
0.07848573419039508
0.07848583615312754
0.07848595008401049
0.0784860774104795
0.07848621965506873
0.0784863786536152
0.07848655637087644
0.07848675509150094
0.07848697732204982
0.0784872258448627
0.07848750338903496
0.07848781329725371
0.07848816304646543
0.07848856595992039
0.07848903638043364
0.07848958123714345
0.07849018986738106
0.07849084667720393
0.07849155383919929
0.07849231317079172
0.07849309175922707
0.07849383553085644
0.07849453153191868
0.07849525344508995
0.07849602145211848
0.07849670902997567
0.07849726578929034
0.07849777250830177
0.0784982796237135
0.07849882374840014
0.0784994765362913
0.07850015945728366
0.07850069564823881
0.07850126759844897
0.07850201206764897
0.07850280327498932
0.07850365973879249
0.07850458916349017
0.07850559694026622
0.07850668812718394
0.07850786831000754
0.07850914221853236
0.07851051559928136
0.07851199330728964
0.0785135791278532
0.07851527783356313
0.07851709282786384
0.07851902501423383
0.07852107498241916
0.07852324055642815
0.07852551645203532
0.07852789464694421
0.07853036466878996
0.07853291193445676
0.07853551906180771
0.07853817496600013
0.07854085453667271
0.07854352408800498
0.07854615092516117
0.07854867500475891
0.07855104822998898
0.0785533984396459
0.07855571150352932
0.07855777716549275
0.07855978436769738
0.07856170900393177
0.07856108304002414
0.07855372794296867
0.07853807261781956
0.07850255267597576
0.07844080959516428
0.07837442426319616
0.07827916251157249
0.07814283543294212
0.07823280315394052
0.07928045524575808
0.06886214061097766
0.07764556177420372
0.07764556502771613
0.07764556857295972
0.07764557197768723
0.07764557532181997
0.07764557867389811
0.07764558216667955
0.07764558579880533
0.07764558974780111
0.07764559402958685
0.07764559885650382
0.07764560427763163
0.07764561052290096
0.07764561766384537
0.07764562594400676
0.07764563543722443
0.07764564632168684
0.0776456586600353
0.07764567272348795
0.07764568866463298
0.07764570684876779
0.077645727638183
0.07764575174173358
0.07764577983781898
0.07764581262044386
0.0776458501527257
0.07764589224065224
0.07764593873084515
0.07764599013389702
0.07764604710810513
0.0776461104755749
0.07764618069623187
0.07764625840044673
0.07764634409186424
0.07764643848852947
0.07764654217673964
0.07764665597277749
0.0776467805907151
0.07764691701512018
0.07764706618164884
0.07764722936379434
0.07764740787031062
0.07764760344989934
0.07764781804047359
0.07764805406176445
0.0776483138038991
0.07764859983289363
0.07764891887032374
0.07764928998384919
0.07764973568876132
0.07765025285158539
0.07765081970564353
0.07765143585605756
0.07765209728187079
0.07765277049339012
0.07765342521740909
0.07765406541261463
0.07765467365598118
0.07765519143593581
0.07765561301549513
0.0776559751626229
0.07765633027692115
0.07765671514449835
0.07765718414632451
0.07765752326871703
0.07765783410106647
0.07765830029488417
0.07765878324222485
0.07765930977338588
0.0776598877802257
0.07766051911961415
0.07766120888359401
0.07766196290925029
0.07766278766238073
0.07766368984062944
0.07766467685061697
0.07766575875391517
0.07766694587121301
0.07766824876217925
0.07766968037711813
0.07767125618299194
0.07767299252938172
0.0776749042656128
0.07767700435534602
0.07767930443113176
0.07768180428323526
0.07768449498195454
0.07768739503478841
0.07769054406443154
0.0776939984490628
0.07769777480863017
0.07770173425513585
0.07770565639288092
0.07770965757027734
0.07771388159026896
0.07771641327203688
0.07771274517847372
0.07770006714621894
0.07767625563935351
0.07763043690637673
0.07756817885580229
0.07749753520794481
0.0774082279165608
0.07728524916134069
0.07712177733333692
0.07713545735629775
0.07798451002559005
0.06906940945982686
0.07691036577574303
0.07691036850204368
0.07691037151967692
0.07691037441245094
0.07691037728297161
0.07691038025587291
0.07691038334282402
0.07691038663589367
0.07691039018490736
0.07691039412972787
0.07691039856186488
0.076910403655707
0.07691040954975975
0.07691041644447562
0.07691042445743967
0.07691043371306218
0.0769104442473109
0.07691045618786332
0.07691046963243188
0.07691048479500502
0.07691050186853304
0.07691052124877525
0.07691054341507661
0.07691056909462929
0.07691059877779169
0.07691063266724418
0.07691067039775631
0.07691071171578563
0.07691075662392144
0.07691080585370166
0.07691086003682818
0.07691091970238464
0.07691098516337132
0.07691105696695955
0.07691113548067886
0.07691122129967401
0.07691131482469971
0.07691141671468324
0.07691152745035339
0.07691164782535463
0.07691177850997417
0.07691192058024256
0.07691207508210157
0.07691224358486676
0.07691242772906559
0.07691262979112774
0.07691285221429665
0.07691309806784674
0.07691337024336033
0.07691367156986369
0.07691400734536843
0.07691439799798175
0.07691485578813465
0.07691536884477501
0.07691593332492978
0.07691653929731604
0.07691715960133236
0.07691777223544731
0.07691836888718606
0.07691893623218907
0.07691944338976903
0.07691988055203119
0.07692027498291396
0.07692071904126473
0.07692128125622946
0.07692169345243705
0.07692206661868854
0.07692260635030149
0.07692317257393175
0.07692377637413556
0.07692442624215283
0.07692512574817513
0.07692587779099731
0.07692668582279324
0.07692755289844097
0.0769284819247156
0.0769294764895487
0.07693053926372936
0.07693167212273334
0.07693287648473188
0.07693415179177145
0.07693549998084021
0.07693692696476501
0.07693844037986436
0.07694004821685378
0.07694177040701991
0.07694361843998587
0.07694556580039714
0.07694754705655707
0.07694951607314623
0.07695148369645968
0.07695367725045034
0.07695609677025288
0.07695680013444399
0.0769523327540044
0.07694073669444179
0.07692324969228387
0.07689226813576462
0.07684316381955564
0.0767853967092592
0.07671518951956116
0.07662887208211488
0.07652292191178066
0.07638701381505504
0.07621027288964174
0.07615082661679251
0.07678279673836123
0.06979013152559346
0.07625234927355047
0.07625235191224661
0.07625235490028612
0.07625235798489013
0.07625236104106851
0.07625236422769249
0.07625236746249084
0.07625237088517869
0.07625237446598028
0.0762523783520363
0.07625238256721265
0.07625238727802637
0.07625239253789394
0.07625239852102086
0.07625240528730914
0.07625241305419406
0.07625242196545974
0.07625243231998578
0.07625244434045794
0.07625245841490083
0.07625247471024263
0.07625249355043692
0.07625251516886243
0.07625254008844784
0.07625256856508292
0.07625260083560177
0.07625263649830169
0.07625267515512797
0.07625271646204297
0.07625276112825458
0.07625280968971582
0.0762528626424227
0.07625292011044393
0.07625298258485672
0.07625305021565598
0.07625312350924773
0.07625320259184619
0.07625328796566949
0.07625337975793682
0.07625347852590174
0.0762535844932935
0.0762536984019701
0.07625382075047644
0.07625395267323883
0.07625409515425652
0.07625424992078071
0.07625441866082328
0.0762546039089676
0.07625480824838943
0.07625503502868672
0.07625528703446793
0.0762555667910792
0.07625587856312376
0.07625624064314981
0.07625666618406216
0.0762571536110206
0.07625771142692431
0.07625833233823232
0.07625897975673734
0.07625960075211102
0.07626014279101073
0.07626060910760217
0.07626101613527642
0.07626137468092171
0.07626177680844651
0.07626228379422886
0.07626272056712882
0.07626312263429284
0.07626361369772214
0.07626414312668837
0.07626471657296546
0.07626533934765165
0.07626601525905406
0.07626674844215729
0.07626754313079098
0.07626840380382839
0.07626933554828548
0.07627034336245954
0.07627143276992712
0.07627261042260958
0.07627388540511161
0.07627526770409805
0.07627676358215707
0.07627837511372679
0.07628009688932079
0.0762819024793521
0.07628379331922373
0.0762857986613967
0.07628798085614048
0.07629046739574796
0.07629276951754702
0.07629284690431026
0.07628808446796764
0.07627770256098171
0.07626283755377636
0.07623769670380087
0.0761965831238762
0.07614734639363081
0.07609266510725154
0.07602604192445205
0.07594429790598678
0.07584602714153678
0.07572912523564999
0.07558264818571925
0.07539629173850462
0.07529274050885726
0.07581295959340957
0.07022816876181467
0.07564694224372349
0.07564694386219617
0.07564694510377629
0.07564694543893473
0.07564694539399899
0.07564694502742873
0.07564694456754334
0.0756469440416724
0.07564694360865504
0.07564694339949225
0.07564694350902257
0.0756469440987402
0.0756469452500189
0.07564694717311168
0.07564694994428905
0.07564695383710567
0.07564695897386872
0.07564696567167478
0.07564697407182555
0.07564698452254007
0.07564699709681254
0.07564701212065147
0.07564702975387905
0.07564705053858381
0.07564707472661097
0.07564710261083765
0.07564713366737581
0.07564716739238367
0.07564720343406896
0.07564724254415224
0.0756472850873636
0.07564733145748104
0.07564738161802827
0.07564743591317498
0.07564749428375768
0.07564755702155693
0.07564762398176132
0.07564769536757371
0.07564777094436828
0.0756478508388158
0.07564793476395912
0.07564802284178415
0.07564811484317181
0.07564821101013199
0.07564831132437033
0.07564841632846774
0.07564852639700906
0.07564864254190609
0.07564876571533245
0.07564889764566328
0.07564904016398147
0.07564919543937437
0.07564936479660241
0.07564955084357683
0.07564976607020563
0.07565004375111896
0.07565040307721706
0.0756508280931682
0.07565129333209254
0.07565175477970393
0.07565219134458437
0.07565261706917913
0.07565303483614097
0.07565342980753996
0.07565378718374773
0.07565417306638259
0.07565462705013726
0.0756550813399767
0.07565555740076885
0.07565608696607212
0.07565666622488205
0.07565730212508283
0.07565800069940889
0.07565876907141271
0.07565961462369988
0.07566054541158369
0.07566157057613399
0.07566269799870706
0.07566393644330331
0.07566529287619908
0.07566676566521795
0.07566836025131309
0.07567010221335065
0.0756720298869941
0.07567419395223947
0.07567665124095274
0.07567945257331962
0.07568235605439941
0.07568419912457831
0.07568298752258459
0.07567720900300071
0.07566771657083964
0.07565494890698768
0.07563416045497087
0.07560136281721745
0.0755625857155275
0.07552030323768048
0.07547012444986292
0.07540947281386276
0.07533617741485235
0.07524964434681825
0.07514820445847847
0.07502785562207658
0.07488230272222227
0.07470216210398506
0.07458477674858835
0.07506643641385152
0.07036694427774748
0.07505883459729333
0.07505883597473759
0.07505883663617835
0.07505883612255891
0.07505883477129605
0.07505883267827777
0.0750588301713537
0.07505882733374372
0.07505882439333234
0.07505882144271653
0.07505881867630304
0.07505881623762523
0.07505881425816126
0.07505881288403221
0.07505881220714243
0.07505881236729235
0.07505881338764478
0.07505881540303938
0.07505881843311442
0.07505882263413749
0.07505882803561942
0.07505883491969882
0.07505884354872716
0.0750588545097975
0.07505886813296425
0.07505888465921511
0.07505890365089776
0.07505892471454538
0.07505894767422901
0.07505897306658393
0.07505900113879092
0.0750590322806115
0.07505906652790251
0.0750591042105463
0.07505914540041261
0.07505919047059016
0.07505923951782334
0.07505929294302936
0.07505935086141657
0.07505941369754981
0.07505948161026381
0.07505955509799028
0.07505963443744469
0.07505972029525883
0.0750598131928953
0.07505991410375278
0.0750600239256464
0.07506014408511993
0.07506027605728741
0.0750604219928491
0.07506058427022036
0.07506076597487099
0.07506097068841218
0.07506120319640378
0.07506146820028575
0.07506176937217927
0.07506211392566425
0.07506252642625347
0.07506301623311833
0.0750635433367309
0.07506407107873729
0.07506460163174093
0.07506513096642968
0.07506563658875662
0.07506611153874221
0.07506657022815594
0.07506704109571383
0.07506753971327014
0.07506809242153213
0.07506874278509354
0.0750694672069868
0.07507027422229048
0.07507117873042923
0.07507219426888073
0.0750733353613925
0.07507461946058812
0.0750760676855821
0.07507770410980581
0.07507954944517549
0.07508163245539867
0.07508402226745794
0.07508679454193606
0.07508996182515365
0.07509342917254151
0.07509685367784107
0.07509931975217006
0.07509936926978746
0.07509597185002131
0.07508967224609422
0.07508136990985326
0.07507032080054034
0.0750531323534729
0.07502739905096893
0.07499782518199419
0.07496651253761552
0.07493004781414159
0.07488629056640102
0.07483372235827973
0.07477189412835344
0.07470028265668822
0.07461667065347061
0.07451783210501478
0.07440446417334179
0.07427127085246986
0.0741043522666698
0.07398675162664908
0.07445241598051071
0.07035916026266753
0.07446906234915512
0.07446906262435801
0.07446906224650485
0.07446906063367645
0.07446905820072203
0.07446905533616503
0.07446905214192739
0.07446904888527733
0.07446904558398795
0.07446904250458669
0.07446903964247577
0.07446903721709802
0.0744690352398194
0.07446903389565859
0.0744690331753424
0.07446903320283886
0.07446903398026193
0.07446903565850831
0.07446903824601331
0.0744690418407499
0.07446904643726628
0.07446905221336239
0.07446905937998829
0.07446906838970288
0.07446907957352299
0.07446909314270034
0.07446910881185947
0.07446912620701893
0.07446914512856423
0.07446916583890595
0.07446918861890277
0.07446921385683561
0.07446924170339632
0.07446927246431526
0.0744693063851774
0.07446934389668329
0.07446938537191204
0.07446943137481855
0.0744694824198268
0.07446953921892187
0.0744696024494904
0.07446967299879875
0.07446975173621767
0.07446983974445713
0.07446993808150851
0.07447004800111835
0.07447017073458577
0.07447030771827097
0.07447046042154234
0.07447063049750864
0.07447081929275262
0.07447102845758768
0.07447126027930098
0.07447151799415187
0.07447180518604996
0.07447212615384213
0.07447248710879537
0.07447289459798152
0.07447335359403669
0.07447386936938186
0.07447445103478011
0.07447511251112715
0.0744758716241129
0.07447674918835966
0.07447775226923267
0.0744788382235331
0.07447994479252769
0.07448099941370118
0.07448221739227423
0.07448373520494379
0.07448544696725747
0.07448738188813271
0.07448959279429843
0.07449212022348849
0.07449500966745071
0.07449830211237569
0.07450202798188757
0.07450620842891234
0.07451085297811344
0.07451580287597187
0.07452056651488088
0.07452445277687428
0.07452673721892068
0.07452690160622892
0.07452488554728529
0.07452119097245317
0.07451609573041854
0.07450921134847156
0.07450028171607047
0.07448822087902728
0.07447155774675697
0.07445213366427508
0.07443094667897818
0.07440568524749011
0.0743750017901752
0.07433828203523866
0.07429526038469519
0.07424533399335109
0.07418733761117061
0.07411977836396814
0.07404181529907684
0.07395361853348896
0.07385362912100447
0.07373382909119447
0.07358292091274682
0.07347326377273723
0.07393288179913557
0.07028513557797121
0.07368596741576985
0.0736859654504957
0.07368596091679509
0.07368595316733231
0.07368594311103895
0.07368593101557985
0.07368591775678082
0.07368590360249666
0.07368588901379068
0.07368587419602722
0.07368585941241354
0.07368584492505641
0.07368583075263592
0.07368581709901327
0.07368580386941706
0.07368579131391978
0.0736857792978222
0.07368576808113075
0.07368575742626858
0.07368574754468096
0.07368573817856801
0.0736857296320669
0.07368572171580963
0.07368571479968418
0.07368570867906457
0.07368570368630833
0.07368569938412832
0.07368569587642798
0.07368569276607886
0.07368569051916225
0.07368568912266958
0.07368568927695432
0.07368569088424826
0.07368569458385819
0.07368570041151738
0.07368570920729298
0.07368572124529904
0.07368573765164221
0.07368575903937016
0.07368578692696923
0.07368582239316127
0.07368586747765808
0.07368592386643018
0.07368599427154715
0.07368608115589564
0.0736861881054279
0.07368631861687186
0.07368647747137433
0.07368666961683805
0.07368690164842569
0.07368718129458166
0.07368751894686459
0.07368792656736876
0.07368841942374536
0.07368901562023018
0.07368973540540856
0.07369058672835048
0.07369157298732315
0.07369271500550109
0.07369405434426375
0.07369564094945263
0.07369752262891995
0.07369977744115327
0.07370248914947003
0.07370526393843123
0.07370705652773435
0.0737091756028254
0.07371520341244109
0.07372385806639375
0.07373202543001423
0.0737398257259637
0.07374754977204546
0.07375532769379009
0.07376315989667617
0.07377092880392347
0.07377843222563871
0.07378549536440118
0.0737920242858022
0.07379802269155383
0.07380372050162866
0.07380931976617794
0.07381469259018925
0.07381972346709563
0.07382440151672089
0.07382853506878526
0.07383169647358406
0.07383340554753044
0.07383340146481283
0.07383108695903585
0.07382661669197117
0.07382059521467202
0.07381256479456093
0.07380187645798517
0.0737879141059021
0.07377008069887067
0.073747679527589
0.07371978792606741
0.07368535682600014
0.07364317118080316
0.07359174586393005
0.07352953397718028
0.0734558434070566
0.07336955678938004
0.07326545230025408
0.07313316422859689
0.07303761577834859
0.0734933475651804
0.0701625708790595
0.0724444924965684
0.07244447856190479
0.07244445468091495
0.07244441983960442
0.07244437317869798
0.07244431901124228
0.07244425898386093
0.07244419534741663
0.07244412919154432
0.0724440615140748
0.07244399336119818
0.07244392490982413
0.07244385687665923
0.07244378883987176
0.07244372139235844
0.07244365376827304
0.07244358643654432
0.07244351839961076
0.0724434501451225
0.07244338049478083
0.07244330997791236
0.07244323738448129
0.07244316347887594
0.07244308708341249
0.07244300917024027
0.07244292858427312
0.07244284657768249
0.07244276217140241
0.07244267722680486
0.07244259131842205
0.07244250687253491
0.07244242356797645
0.07244234379676673
0.072442267255401
0.07244219671054228
0.07244213226690051
0.07244207725258349
0.0724420324025227
0.0724420018570708
0.07244198728800837
0.07244199398545817
0.07244202497669457
0.07244208715555202
0.07244218546233958
0.07244232905099388
0.07244252559849926
0.07244278756612306
0.07244312676873373
0.07244356076298056
0.07244410765342507
0.07244479194965615
0.07244564102344464
0.07244670485559937
0.07244807010852872
0.07244975036473669
0.0724512485218651
0.07245164635445105
0.07245142685575107
0.07245362568751106
0.07245934952244312
0.07246800787082612
0.07248088672636224
0.0724993466369365
0.07252363464799762
0.07255390722046871
0.07259115033789895
0.07263537014264419
0.07268323320686795
0.07272929887256749
0.07277164388738301
0.0728107563771459
0.07284751759245783
0.07288235221934308
0.07291535618349389
0.07294655652638571
0.07297603735615997
0.07300390662871159
0.07303023139636436
0.0730550571258262
0.07307844989956794
0.07310047390267474
0.07312118694008336
0.07314066554127212
0.07315902964865921
0.07317639725317787
0.07319286269017726
0.07320844412052918
0.07322308359308581
0.07323653652836128
0.07324839243199315
0.07325836028249583
0.07326603493180234
0.07327087280303818
0.07327223690417714
0.07326927489626205
0.07326104320522157
0.07324647143605062
0.07322443582647763
0.07319372507367397
0.07315318286259496
0.07310170681727107
0.07303782718566146
0.07296108231905757
0.07286811529673394
0.07274930726836816
0.07266249493806259
0.07310354692713464
0.07004176907888245
0.06975537602312309
0.0697553526937551
0.06975532218248073
0.06975529011483864
0.0697552468197678
0.06975520095920278
0.06975514929291232
0.06975509784442686
0.0697550439358028
0.06975499025017019
0.0697549358078266
0.06975488200475591
0.06975482829742825
0.0697547747696021
0.06975472147579373
0.06975466797667612
0.06975461453664741
0.0697545603989263
0.06975450637627527
0.06975445165175673
0.0697543972492866
0.06975434229736205
0.06975428820921832
0.06975423416165701
0.06975418197048816
0.06975413109774128
0.06975408434890774
0.06975404278666233
0.0697540124968468
0.06975399743841998
0.06975400433864715
0.06975403730190366
0.06975410545605884
0.06975421603801352
0.06975438128385568
0.069754611891926
0.06975492429764651
0.06975533421901042
0.06975586419911789
0.06975653736240545
0.06975738527984325
0.06975844203061819
0.06975975244886631
0.06976136716001377
0.06976335253555351
0.06976578403326285
0.0697687359308936
0.06977228862359733
0.06977656941990848
0.06978174679503703
0.06978803784812174
0.06979570729349102
0.0698050996647914
0.06981674826616924
0.0698314239582271
0.06985028100567164
0.06987481422978085
0.06990499717472605
0.06993834082872201
0.06997422563253677