/*--------------------------------*- C++ -*----------------------------------*\
| =========                 |                                                 |
| \\      /  F ield         | OpenFOAM: The Open Source CFD Toolbox           |
|  \\    /   O peration     | Version:  v1812                                 |
|   \\  /    A nd           | Web:      www.OpenFOAM.com                      |
|    \\/     M anipulation  |                                                 |
\*---------------------------------------------------------------------------*/
FoamFile
{
    version     2.0;
    format      ascii;
    class       surfaceScalarField;
    location    "0.00000054";
    object      phi;
}
// * * * * * * * * * * * * * * * * * * * * * * * * * * * * * * * * * * * * * //

dimensions      [0 3 -1 0 0 0 0];
oriented        oriented;


internalField   nonuniform List<scalar> 
87612
(
1.586030335783745e-06
1.575116116762181e-08
3.152150228037549e-06
4.723797394072184e-08
4.709142018155191e-06
7.96215118656172e-08
6.266972672556423e-06
1.138195412651833e-07
7.834999801066442e-06
1.50780473616414e-07
9.421807349024043e-06
1.915068399918295e-07
1.103546390661776e-05
2.370761994105592e-07
1.268323945158782e-05
2.88659677928794e-07
1.437190603812596e-05
3.475390305443208e-07
1.61073720554056e-05
4.151235981684168e-07
1.789500282781193e-05
4.92966794133801e-07
1.973920126683006e-05
5.827784336865969e-07
2.164375665064461e-05
6.864271436175988e-07
2.361142250002526e-05
8.059302187644071e-07
2.56443369539831e-05
9.434289780389851e-07
2.774366332738646e-05
1.101151384956808e-06
2.991011429163071e-05
1.281381436407424e-06
3.214363137590616e-05
1.486456907336524e-06
3.444392213308506e-05
1.718799347055209e-06
3.681007780251888e-05
1.98095921565121e-06
3.924106246575462e-05
2.27566077232805e-06
4.173531467025975e-05
2.60579313793884e-06
4.429130490955207e-05
2.974399583381031e-06
4.69071125056338e-05
3.384743970421726e-06
4.958086677303623e-05
3.840408313666118e-06
5.231013213702512e-05
4.345429703299705e-06
5.509211256810489e-05
4.904454066461223e-06
5.792285595637486e-05
5.522820841412038e-06
6.079744216620744e-05
6.206549863052137e-06
6.370933359179375e-05
6.962281016011878e-06
6.665072887650938e-05
7.797235727428256e-06
6.961199416276824e-05
8.719261959689931e-06
7.258195851002218e-05
9.736924546632469e-06
7.554730953453868e-05
1.085955399592327e-05
7.84928961614427e-05
1.20972842917525e-05
8.1401176626343e-05
1.346108401588934e-05
8.42525858482717e-05
1.496277241509831e-05
8.702514911456807e-05
1.661497958095037e-05
8.969541707366741e-05
1.843075546962594e-05
9.223875391401461e-05
2.042344885396099e-05
9.463082079421064e-05
2.260644693560864e-05
9.684888176426526e-05
2.499261139742009e-05
9.887349492050104e-05
2.759483201928647e-05
0.0001006861774847144
3.042933367793806e-05
0.0001022692519856618
3.351446368138854e-05
0.000103607969135577
3.686770064014076e-05
0.0001046926389270514
4.050665231394805e-05
0.0001055196405200414
4.444947378538161e-05
0.0001060934958553504
4.871485818235772e-05
0.0001064280962815596
5.332217654208655e-05
0.0001065447314881667
5.829580913041901e-05
0.0001064744387908484
6.366010472429965e-05
0.0001062533001364002
6.944764641661422e-05
0.0001059292108015996
7.568706924878433e-05
0.000105555311960521
8.241768729787772e-05
0.0001051701726821657
8.970208665821679e-05
0.0001047802681104964
9.762511552969634e-05
0.0001043825264275371
0.000106253291241595
0.0001039774134245393
0.0001156455390872327
0.0001035285141427648
0.000125906326955178
0.0001030153295010259
0.0001370937053974485
0.0001024315640703979
0.0001492736262395045
0.0001017936708374451
0.0001625109543315285
0.0001011012961098519
0.000176917557259569
0.0001003479972497362
0.0001926033055725442
9.952609084728264e-05
0.0002096821546156034
9.863043101969592e-05
0.0002282745225169177
9.765572275058257e-05
0.0002485141996280067
9.659645000361346e-05
0.00027054708692407
9.544677742061875e-05
0.0002945319323005911
9.420077822505402e-05
0.0003206414505625584
9.285236508738219e-05
0.0003490636170180576
9.139537697189297e-05
0.000380003057401011
8.982370117064319e-05
0.0004136823494539478
8.813171271538484e-05
0.0004503434120883078
8.631339368062518e-05
0.0004902505345892202
8.43629374304939e-05
0.0005336907683215493
8.227491970860758e-05
0.0005809765242881609
8.004427746210466e-05
0.000632447883076984
7.766656071144174e-05
0.000688474981885678
7.513791880117286e-05
0.0007494606898828455
7.245539142505594e-05
0.0008158435389065719
6.961690759781675e-05
0.0008881008230886039
6.662164662280939e-05
0.0009667521096036874
6.346995243204996e-05
0.001052362963799769
6.01637649677034e-05
0.001145549064139856
5.670660142622001e-05
0.001246980524703311
5.310400939236246e-05
0.001357386900940916
4.93631282135435e-05
0.001477562698589056
4.549316857208494e-05
0.001608372909949343
4.150417492524389e-05
0.001750760253891276
3.740400329068127e-05
0.001905754527686974
3.321258556912263e-05
0.002074461990554957
2.890743133280947e-05
0.00225814295407026
2.446083755629978e-05
0.002458128119343515
1.985914274457597e-05
0.002675846826923396
1.508072111872872e-05
0.002912878071124278
1.011910626487327e-05
0.003170917335836148
4.910114358352325e-06
0.003451884370711319
-6.988748483675155e-07
0.003757895008262347
-6.634877908511902e-06
0.004090930582923839
-1.310532254453759e-05
0.00445367430531055
-2.115184119394453e-05
0.004849576109136137
-3.109882357548686e-05
0.005280766481976823
-4.121409495100258e-05
0.005748289051251237
-4.59248819857398e-05
0.006251678347353466
-3.844562229761146e-05
0.006793395959978439
0.007365451272511524
2.402886323175976e-09
1.402997040254603e-08
7.890292180038647e-09
4.249420983762717e-08
1.6036920927579e-08
7.218587344513404e-08
2.654569259780722e-08
1.039623706653872e-07
3.920590567648275e-08
1.387366739750444e-07
5.378687083955117e-08
1.774955198392164e-07
7.007148158403507e-08
2.213126488745045e-07
8.787673824508936e-08
2.713559486420318e-07
1.069801546219287e-07
3.288903341025186e-07
1.272757288060579e-07
3.952794607400959e-07
1.486544445250235e-07
4.719847065710903e-07
1.712928186747695e-07
5.605523646666521e-07
1.954972195969002e-07
6.625787771730867e-07
2.221523229150293e-07
7.7965567843605e-07
2.525712619719261e-07
9.133235161455309e-07
2.890294894676594e-07
1.06504089261685e-06
3.344882115441345e-07
1.236196111187144e-06
3.930793998229125e-07
1.428177505912617e-06
4.696239291359457e-07
1.642483175893381e-06
5.700263637103274e-07
1.880831384605101e-06
7.006484562664141e-07
2.145227978749205e-06
8.686973056688808e-07
2.437986087920485e-06
1.081529190386312e-06
2.761723230883933e-06
1.347088335157707e-06
3.119399798259346e-06
1.673215589653916e-06
3.514412454536728e-06
2.068094127454057e-06
3.950746892329133e-06
2.539518908053956e-06
4.43314427248917e-06
3.095424813484186e-06
4.96709921752854e-06
3.743411064712001e-06
5.558669875394665e-06
4.491446631031063e-06
6.214424972211155e-06
5.34725845321807e-06
6.941527078019342e-06
6.318877884327599e-06
7.747821640977051e-06
7.413935091410923e-06
8.641970918804435e-06
8.640125295934684e-06
9.633545969156696e-06
1.000438372363132e-05
1.073313405859643e-05
1.151318424270492e-05
1.195247258465157e-05
1.317147105801737e-05
1.330460174438436e-05
1.498256045226598e-05
1.480409130336709e-05
1.694605767252951e-05
1.64673882254315e-05
1.905766661384433e-05
1.831205861432181e-05
2.130833868195619e-05
2.035592123274893e-05
2.368384865444943e-05
2.261734177700683e-05
2.616291960485407e-05
2.511593729338062e-05
2.871688825567964e-05
2.787564230784401e-05
3.130817363659537e-05
3.092340041547426e-05
3.389127481624233e-05
3.428493796093985e-05
3.641356098649762e-05
3.798466858950448e-05
3.881896243731845e-05
4.204450652427867e-05
4.105266978146618e-05
4.648157014673755e-05
4.30674862185986e-05
5.130794164990864e-05
4.482235185930303e-05
5.654154623387977e-05
4.627815949191281e-05
6.220510711171646e-05
4.741036807155595e-05
6.831632391436217e-05
4.820282254121634e-05
7.489575357616038e-05
4.866099121081645e-05
8.196076789622537e-05
4.883073572293958e-05
8.953387602839692e-05
4.879535806232489e-05
9.766209160396568e-05
4.865023802193815e-05
0.0001064002200854575
4.847882535279372e-05
0.0001158186368434384
4.832803938353555e-05
0.0001260589114691802
4.820759422280851e-05
0.0001372157171028999
4.809164965764436e-05
0.0001493912315963932
4.796225376049151e-05
0.0001626417415981717
4.782263123610126e-05
0.0001770586826821913
4.767914331596762e-05
0.0001927480164668437
4.753154011072578e-05
0.0002098311042322738
4.737753899285895e-05
0.0002284295789168574
4.721642334310512e-05
0.0002486765090493613
4.704645668496939e-05
0.0002707179566524294
4.686643761315507e-05
0.0002947130006511242
4.667392220501229e-05
0.0003208347213051541
4.646693952735979e-05
0.0003492715140016051
4.624215703557423e-05
0.0003802284683552863
4.599646050171747e-05
0.0004139288384282277
4.572469194545852e-05
0.0004506156900696404
4.542250022979181e-05
0.0004905534102581752
4.508362187820821e-05
0.0005340300597520076
4.470180338470428e-05
0.0005813589334937128
4.426885518203249e-05
0.0006328811592853643
4.377629959570638e-05
0.0006889680481373927
4.321348997709771e-05
0.0007500237620388654
4.256924236218438e-05
0.0008164882294791581
4.182995946298178e-05
0.0008888403129459024
4.098121313518138e-05
0.0009676012424892667
4.000592724476401e-05
0.001053338414157801
3.88859095884059e-05
0.001146669421825755
3.759995969140202e-05
0.001248266612819227
3.612525967132625e-05
0.001358861902354784
3.443600746834426e-05
0.001479252063934963
3.250453315426912e-05
0.001610304650833346
3.030070766488218e-05
0.001752964185660668
2.77781194237501e-05
0.001908277348738013
2.489234814183734e-05
0.002077347853614212
2.162984367701573e-05
0.002261405654873824
1.797522635094034e-05
0.00246178282113636
1.39123040826398e-05
0.002679909908586511
9.421211696838324e-06
0.002917369240337643
4.350623898938271e-06
0.003175988045099239
-1.266869351453294e-06
0.003457501934120271
-7.096964631717661e-06
0.003763725195095258
-1.399848321206807e-05
0.004097832160176883
-2.18793982954503e-05
0.004461555287251194
-2.897642414127654e-05
0.004856673170145679
-3.318225992967142e-05
0.005284972340682247
-3.145941594908544e-05
0.005746566212168526
-2.442341227055563e-05
0.00624464234549849
-1.710450862407986e-05
0.006786077058709029
0.007348346763937228
7.438714423617324e-10
1.425152718050421e-08
1.175600037107342e-09
4.316579245248397e-08
1.136010628970626e-09
7.332761501539196e-08
4.902620717321969e-10
1.056077140691613e-07
-7.516748724849608e-10
1.409316335693069e-07
-2.682298804497056e-09
1.802956140549469e-07
-5.324324652051278e-09
2.247748447328495e-07
-8.743115134410306e-09
2.755225468893644e-07
-1.294205161815011e-08
3.337623687304996e-07
-1.780567383834399e-08
4.007786603393187e-07
-2.316630284007272e-08
4.779035944922384e-07
-2.856473596208092e-08
5.664915066159336e-07
-3.341097420845358e-08
6.678725005187783e-07
-3.659614753309867e-08
7.832955858045481e-07
-3.682596700482653e-08
9.139101492908137e-07
-3.22006084298356e-08
1.060794017555824e-06
-2.076977344220168e-08
1.225038182518859e-06
-1.549680913099914e-10
1.407875357639867e-06
3.174823230432367e-08
1.610789633438723e-06
7.726278063743859e-08
1.835578403761611e-06
1.383029420909752e-07
2.084346978622283e-06
2.170151157439102e-07
2.35949671542179e-06
3.151621902674409e-07
2.663699900365056e-06
4.3487510129787e-07
2.999880962447489e-06
5.780909175316482e-07
3.371293486884718e-06
7.47325177776237e-07
3.781685848923448e-06
9.450777899233773e-07
4.235471156717855e-06
1.174651482389824e-06
4.737685067669443e-06
1.439652851195667e-06
5.293735396330903e-06
1.744801489669369e-06
5.909426600369416e-06
2.09522898597386e-06
6.591157852611398e-06
2.497197214342404e-06
7.345997825438155e-06
2.957452664772498e-06
8.181768720367455e-06
3.484019667988127e-06
9.107120085312074e-06
4.085580487798331e-06
1.013162309160601e-05
4.772310218806645e-06
1.126588255158299e-05
5.555309376501679e-06
1.252165237149895e-05
6.447522045986838e-06
1.391201903672628e-05
7.46312283330656e-06
1.545183880002667e-05
8.617515080422618e-06
1.715781021766007e-05
9.925201760078707e-06
1.904829149553269e-05
1.139908101080158e-05
2.114361336137206e-05
1.304860449037409e-05
2.346647848689575e-05
1.488150358974339e-05
2.604290618886242e-05
1.690234572396079e-05
2.890263880149622e-05
1.9110092596206e-05
3.207737360286533e-05
2.149493238722914e-05
3.559992650805038e-05
2.403624056612107e-05
3.950340435972898e-05
2.669828613683438e-05
4.381965138272096e-05
2.942763130865158e-05
4.857883316273441e-05
3.215275985407318e-05
5.381658711099701e-05
3.47879188699546e-05
5.957024404353255e-05
3.724194025493755e-05
6.586255281305004e-05
3.943677826745241e-05
7.270131629119199e-05
4.129309416318135e-05
8.010484176645627e-05
4.273225072045246e-05
8.809529795081019e-05
4.372010416028831e-05
9.667484455801706e-05
4.426943320912495e-05
0.0001058517405791699
4.443434258427841e-05
0.0001156546164313008
4.435239886835907e-05
0.0001261419932860641
4.416477655780461e-05
0.0001374043806375063
4.39625912455238e-05
0.0001495946245822894
4.375948343047716e-05
0.0001628458241704051
4.35477034006335e-05
0.0001772715704941635
4.331056298598096e-05
0.0001929859844239072
4.305087472383992e-05
0.0002100917822518692
4.276679283035117e-05
0.0002287143709242861
4.245645997246695e-05
0.0002489877284391152
4.211743284986009e-05
0.0002710575769296606
4.174806219781806e-05
0.0002950831699228018
4.134553066976177e-05
0.0003212377633775628
4.090790721387462e-05
0.0003497098676687848
4.043208823124272e-05
0.0003807047274328823
3.991586668768686e-05
0.0004144457345355992
3.935462610093639e-05
0.0004511773238524299
3.874529671129841e-05
0.0004911633682558766
3.808365333777399e-05
0.0005346920521784845
3.73662004234816e-05
0.0005820769760602887
3.658808775064824e-05
0.0006336595892821613
3.574512634896942e-05
0.0006898115664838137
3.483168980593323e-05
0.000750937495517037
3.384266191853187e-05
0.0008174777847088774
3.277140758158645e-05
0.0008899118417941897
3.161162331668322e-05
0.0009687615227976408
3.035535780112665e-05
0.001054594945538282
2.89946429386023e-05
0.001148030598531862
2.751977975233451e-05
0.001249741717967443
2.592068184193364e-05
0.001360461420608409
2.418508540269626e-05
0.0014809878926241
2.229997602864255e-05
0.001612190132212366
2.024970783185228e-05
0.001755014659769489
1.803534698676063e-05
0.00191049202493707
1.564069115939359e-05
0.002079742690225569
1.305629159492063e-05
0.002263990311179374
1.026707263515315e-05
0.002464572199885416
7.233066797652563e-06
0.002682944112892438
3.912148266142142e-06
0.002920690297298756
3.63417534083404e-07
0.003179536927420095
-3.501070576532446e-06
0.00346136653792649
-8.054149110466837e-06
0.003768278390210789
-1.287822985887415e-05
0.00410265630722759
-1.687348453939798e-05
0.004465550591514121
-1.831906458560455e-05
0.004858118763643334
-1.602474103198443e-05
0.00528267802989854
-1.157447489755836e-05
0.005742115947097986
-6.27221199828557e-06
0.006239340082813643
1.02245371507299e-06
0.006778782393507571
0.007349369217686098
6.571291320345184e-10
1.38034664701592e-08
2.189073783660603e-09
4.18084705995768e-08
4.635842050733763e-09
7.102158289962098e-08
8.058227477330086e-09
1.022860946724687e-07
1.255591260116325e-08
1.364984141041702e-07
1.828775547627564e-08
1.746235362668341e-07
2.538876190676234e-08
2.177029975712588e-07
3.410417457966036e-08
2.66853360537047e-07
4.463204499838766e-08
3.23257048220163e-07
5.730799670721829e-08
3.881502200078376e-07
7.242878498421041e-08
4.628084464663543e-07
9.045027706973455e-08
5.485230745299844e-07
1.117914608392657e-07
6.46562088606324e-07
1.370191050117282e-07
7.58125774547881e-07
1.666233750574111e-07
8.84339429130462e-07
2.011935462957428e-07
1.026283321248518e-06
2.412090675794335e-07
1.185055656609636e-06
2.872578250707488e-07
1.361884984808338e-06
3.398593636871683e-07
1.55821902338246e-06
3.997258528171707e-07
1.775767965199031e-06
4.675619653209228e-07
2.016538752016484e-06
5.442643289142115e-07
2.282847829304981e-06
6.306965464891354e-07
2.577293005122394e-06
7.279062686595263e-07
2.902722388041338e-06
8.369421435430145e-07
3.262280448295126e-06
9.591278446131503e-07
3.659549413932336e-06
1.095888522280544e-06
4.098731807817079e-06
1.248965486180306e-06
4.584656358308233e-06
1.420199578848858e-06
5.122521540946397e-06
1.61180015356849e-06
5.71787377668014e-06
1.826176133679708e-06
6.376801667759838e-06
2.06620671512628e-06
7.106014939920446e-06
2.335074135703129e-06
7.912920851022072e-06
2.636539704328035e-06
8.805702629868097e-06
2.974775607686936e-06
9.793407047912172e-06
3.354664856380101e-06
1.088604246494191e-05
3.781649478152455e-06
1.209468879955504e-05
4.262104389361256e-06
1.343161498894831e-05
4.803554333634232e-06
1.49104114204857e-05
5.415270968188745e-06
1.654614682058664e-05
6.108062385460646e-06
1.835552536317161e-05
6.894662181798223e-06
2.035706990302452e-05
7.789809284705294e-06
2.257136033739038e-05
8.810984540408263e-06
2.502179174696467e-05
9.978528807361803e-06
2.773512912103276e-05
1.131480927007907e-05
3.07411612445145e-05
1.284210455502839e-05
3.407267374184413e-05
1.457923420685657e-05
3.776635422211421e-05
1.65344282919574e-05
4.186451438087595e-05
1.86989030642473e-05
4.6414455227794e-05
2.105074272419218e-05
5.146482241011665e-05
2.355821551658045e-05
5.706288984325046e-05
2.617101353142525e-05
6.324985466729316e-05
2.881462085758811e-05
7.005785693027364e-05
3.139378549861009e-05
7.752581885343109e-05
3.380220386779885e-05
8.568708683227391e-05
3.592383095455414e-05
9.455343923506294e-05
3.76374685111512e-05
0.0001041384173220952
3.884858930501962e-05
0.0001144438656039325
3.954222215507756e-05
0.0001254488494845933
3.978956064981142e-05
0.0001371575930965939
3.975438664512002e-05
0.0001496304815621322
3.959836848431979e-05
0.0001630025129521751
3.940334035831024e-05
0.0001774673380472495
3.921318220081682e-05
0.0001931767777127268
3.90068554794527e-05
0.000210298807621999
3.878110898647186e-05
0.00022894069739806
3.853477527681123e-05
0.0002492347224038052
3.826501583788415e-05
0.0002713278760543649
3.796991505320471e-05
0.000295378899130285
3.764697801248976e-05
0.0003215612050824723
3.729378482043809e-05
0.0003500636565738641
3.690725171940113e-05
0.0003810917302739857
3.648453286038705e-05
0.0004148690144787462
3.602310597768148e-05
0.0004516391793341414
3.551968993703083e-05
0.0004916673083199567
3.497019947851717e-05
0.0005352419387126642
3.437073974727821e-05
0.000582676917507279
3.371666777633003e-05
0.0006343140147942161
3.300335295302076e-05
0.0006905253123228904
3.222539980254629e-05
0.0007517157534752992
3.137755343482848e-05
0.0008183260075525912
3.045385504060298e-05
0.0008908357951152087
2.944836519205574e-05
0.0009697673352195472
2.835432518703427e-05
0.001055689195925146
2.716555630521521e-05
0.001149219640434456
2.587363381511415e-05
0.00125103381066539
2.4469560303414e-05
0.001361865723613521
2.294379441489238e-05
0.001482513803124943
2.128912355893933e-05
0.001613844994379778
1.949731945968203e-05
0.001756806587298829
1.756414089969768e-05
0.001912425360017453
1.547491897178357e-05
0.002081832021661096
1.321034519086668e-05
0.002266255010086974
1.075829296461546e-05
0.002467024355845141
8.12523103229762e-06
0.002685577272787901
5.285279130540847e-06
0.002923530343059096
2.153503105465936e-06
0.003182668787791263
-1.391748172272134e-06
0.003464911841503977
-4.966558373303478e-06
0.003771853255583743
-7.002642077853291e-06
0.004104692400421477
-6.67046295085527e-06
0.004465218439432526
-4.572978990823224e-06
0.004856021283410468
-1.57949423609883e-06
0.005279684556158059
1.370333042397196e-06
0.00573916612056362
3.236733997956835e-06
0.006237473682084778
4.356164706221965e-06
0.006777662963127159
0.007353725382444391
3.590270937279432e-10
1.313380392890251e-08
2.037060118530998e-09
3.97801257920307e-08
5.148484965113915e-09
6.757591546248749e-08
9.803937142745545e-09
9.732379013568487e-08
1.613394848506835e-08
1.298777381874956e-07
2.434825967746317e-08
1.661591998845994e-07
3.467061294498766e-08
2.071670270610113e-07
4.736015048130729e-08
2.539791936742661e-07
6.272512653342517e-08
3.077470103587415e-07
8.106475680898773e-08
3.696856559227237e-07
1.027331594672176e-07
4.410629004411436e-07
1.280017270567138e-07
5.231811540227291e-07
1.571911410013322e-07
6.173461694102159e-07
1.904553394307092e-07
7.248273716755123e-07
2.279661848512021e-07
8.468419789736355e-07
2.696737126271079e-07
9.845694123516848e-07
3.155823428512079e-07
1.139185252387985e-06
3.655351744965718e-07
1.311943067946658e-06
4.195580577091871e-07
1.504250139036241e-06
4.776371520067154e-07
1.71770985692202e-06
5.400570262624065e-07
1.954180949108562e-06
6.071139029852521e-07
2.215817350958687e-06
6.794161193170217e-07
2.505057435138676e-06
7.575668509456925e-07
2.82460114873203e-06
8.424655265987022e-07
3.177450621166732e-06
9.350085744729348e-07
3.567037929255827e-06
1.036403363031856e-06
3.997407668802922e-06
1.147818528968008e-06
4.473274905294711e-06
1.270630008056161e-06
4.999782761542344e-06
1.40614797358538e-06
5.582391779001592e-06
1.555978006193998e-06
6.227046272570311e-06
1.721746483183261e-06
6.940284954455481e-06
1.905429351572371e-06
7.729315030425612e-06
2.109087051317357e-06
8.6020864471007e-06
2.335200470723932e-06
9.567373549087333e-06
2.586422175176534e-06
1.06348658479376e-05
2.865925524499322e-06
1.181526890101091e-05
3.177173141248425e-06
1.312041663447499e-05
3.524275169583825e-06
1.456339672588608e-05
3.911785123083008e-06
1.61586908672974e-05
4.345071004847457e-06
1.792233181064684e-05
4.8301204058071e-06
1.987207998928128e-05
5.373954269152193e-06
2.202762364043513e-05
5.985005240844622e-06
2.441080686595297e-05
6.674363246737337e-06
2.704587527059225e-05
7.455845329834316e-06
2.995975416107471e-05
8.346273865800586e-06
3.318235782131967e-05
9.365338031723761e-06
3.67473782363567e-05
1.053604108147723e-05
4.069393940172646e-05
1.188417412675494e-05
4.506643106662743e-05
1.343591643872161e-05
4.991323268610658e-05
1.520922303669765e-05
5.528972232923484e-05
1.720157380342469e-05
6.125768983344556e-05
1.938034227931256e-05
6.787926986126875e-05
2.169547610409701e-05
7.521091790615685e-05
2.408688293772224e-05
8.329591845008321e-05
2.647160232406768e-05
9.216902715218266e-05
2.87449794200798e-05
0.0001018653853143685
3.07709825490578e-05
0.0001124183194134759
3.23865513820115e-05
0.0001238338263484107
3.34674982756963e-05
0.0001360773782963397
3.400122331150311e-05
0.0001490976190850927
3.411119276473484e-05
0.0001628936039058728
3.40025694217441e-05
0.0001775770863452717
3.381895372582041e-05
0.0001933615557225265
3.36416540137963e-05
0.0002104772008952666
3.344972984003921e-05
0.0002291336597087956
3.324006035356459e-05
0.0002494453519395459
3.301228844046625e-05
0.0002715565501542543
3.276428692208697e-05
0.0002956277372462399
3.24941393838812e-05
0.0003218321326780506
3.219987987861645e-05
0.0003503586440238452
3.187929686308125e-05
0.0003814129855354438
3.153000393270824e-05
0.0004152189407669449
3.1149642251788e-05
0.0004520201226407699
3.073543460128617e-05
0.0004920820643168992
3.028429263015657e-05
0.0005356935818923795
2.979294276372574e-05
0.0005831687369082621
2.925775034289991e-05
0.0006348496288793447
2.867507892010449e-05
0.0006911083835984352
2.804080572135883e-05
0.0007523503814357997
2.734988564063801e-05
0.0008190172699718886
2.659638270403205e-05
0.0008915896027122131
2.577372167842689e-05
0.0009705902906207752
2.487489007831185e-05
0.001056588289304769
2.38891795834678e-05
0.001150205603444085
2.281251233881546e-05
0.001252110705320678
2.164202796995572e-05
0.001363036422434019
2.037336010981222e-05
0.001483782670845926
1.898944746665057e-05
0.001615229087325848
1.747479687488381e-05
0.001758321407875092
1.579232755405706e-05
0.001914107979047904
1.395036511354921e-05
0.002083674143593921
1.197779990832416e-05
0.002268227701723741
9.839468074002248e-06
0.002469162824227027
7.437292696506389e-06
0.002687979573259346
4.671069790189135e-06
0.002926296661092686
1.849221413456201e-06
0.00318549073743296
-3.754455147185555e-07
0.003467136547332043
-1.195567038978429e-06
0.003772673430008919
-6.350506716482367e-07
0.004104131895876281
7.560754032854683e-07
0.004463827341624592
2.543636221255707e-06
0.004854233729473712
4.16238968689287e-06
0.005278065815116923
5.198956250430213e-06
0.005738129555621542
5.304918714285865e-06
0.006237367719441942
3.897568816360082e-06
0.006779070313362638
0.007357622951195338
5.86381359748141e-10
1.257969255914251e-08
2.356752663002496e-09
3.810181568537564e-08
5.323219083569639e-09
6.472495077911182e-08
9.578814143523636e-09
9.321806102637292e-08
1.523948456006705e-08
1.243999297853802e-07
2.243221201514352e-08
1.591555698146112e-07
3.136844110875717e-08
1.984475549661258e-07
4.223599769209464e-08
2.433201119597656e-07
5.53202578594708e-08
2.948960046066301e-07
7.085273649203799e-08
3.543692406354799e-07
8.915551478777073e-08
4.229960668720674e-07
1.104707206987173e-07
5.020811421002114e-07
1.350969199364007e-07
5.92952250954767e-07
1.632077756355252e-07
6.969243091020469e-07
1.949956890947994e-07
8.15274623488474e-07
2.305095726214737e-07
9.492495350311455e-07
2.698092451182438e-07
1.100089840718128e-06
3.128486752439789e-07
1.269080083995818e-06
3.596653624281967e-07
1.457618636790349e-06
4.102638010183369e-07
1.667269485572837e-06
4.64797801624689e-07
1.899814143949668e-06
5.234554977869667e-07
2.157301173817032e-06
5.866111779091917e-07
2.442053258805617e-06
6.546855230830454e-07
2.756654491134332e-06
7.282873252170047e-07
3.103987737839928e-06
8.080846827779158e-07
3.487357694767267e-06
8.949570965425497e-07
3.910665374709475e-06
9.898407493441886e-07
4.378501583264489e-06
1.093775637252098e-06
4.895972711091629e-06
1.207765513424723e-06
5.468507928565138e-06
1.332974151160067e-06
6.101958901439107e-06
1.470604878741947e-06
6.802757555009492e-06
1.622049408839693e-06
7.577989631512787e-06
1.788770416429296e-06
8.435467482898474e-06
1.972452759912229e-06
9.38380983949236e-06
2.174891057797601e-06
1.043252948485596e-05
2.398148949667345e-06
1.159213001013053e-05
2.644455367021179e-06
1.287421288703926e-05
2.916376257457634e-06
1.429159622873705e-05
3.216724732441872e-06
1.585844669547888e-05
3.548752801245147e-06
1.759042607689016e-05
3.91608526225504e-06
1.95048544187321e-05
4.322942209692339e-06
2.162089236314401e-05
4.774113314744758e-06
2.395974617067798e-05
5.275218843668846e-06
2.654489991578196e-05
5.832706598364165e-06
2.940238130357144e-05
6.454129809494022e-06
3.256106961295031e-05
7.148587419018159e-06
3.605304240306263e-05
7.928691050070619e-06
3.991397833911168e-05
8.811718327270197e-06
4.418353669851486e-05
9.819358562843097e-06
4.890575052950011e-05
1.0977085276664e-05
5.41321488258677e-05
1.231276342704225e-05
5.992219462984624e-05
1.384953378286245e-05
6.634268448725337e-05
1.559426594542737e-05
7.34664096175597e-05
1.752648171065209e-05
8.136393119422493e-05
1.959870616944743e-05
9.009707155523446e-05
2.175128374974285e-05
9.971309679483364e-05
2.391087258179031e-05
0.0001102590911990489
2.595640703684087e-05
0.0001217887022092387
2.771089797626931e-05
0.0001343234295357824
2.898775678959377e-05
0.0001478213800062677
2.968749147319536e-05
0.0001621946713328809
2.989592596286203e-05
0.0001773695161974511
2.981343769495966e-05
0.0001934450203074339
2.963328325769749e-05
0.000210658255810905
2.945632354619271e-05
0.0002293114921157814
2.926434371090801e-05
0.0002496380710919946
2.905464847652726e-05
0.0002717669422769551
2.882641299503367e-05
0.000295856552735961
2.857794496095607e-05
0.0003220811490154865
2.830737246317892e-05
0.0003506296637336183
2.801284631429712e-05
0.0003817079397302481
2.769217602689694e-05
0.0004155399477484319
2.734314722759779e-05
0.0004523694745405883
2.696324481669196e-05
0.0004924622135356137
2.654993009038928e-05
0.0005361071385376296
2.610014831867991e-05
0.0005836186963217479
2.56107343741991e-05
0.0006353392217143425
2.507783273611599e-05
0.0006916414100045297
2.449751431760159e-05
0.0007529308330929489
2.386584068711797e-05
0.0008196490286719592
2.317889228063144e-05
0.0008922766482103938
2.243235911229693e-05
0.0009713368790827034
2.162148288823728e-05
0.001057399239746504
2.074373114683154e-05
0.00115108339006318
1.978909499782563e-05
0.001253065395865938
1.874665790759443e-05
0.00136407888139614
1.760204310507352e-05
0.001484927336207152
1.634859530039731e-05
0.001616482550916445
1.499459607960353e-05
0.001759675454491892
1.354472336702531e-05
0.001915557869624371
1.197175024034125e-05
0.002085247162199631
1.019814430383623e-05
0.002270001343956434
8.166940589974163e-06
0.002471194070240489
6.065415923687576e-06
0.002690081141590082
4.232509342593884e-06
0.002928129574953923
3.07899994375106e-06
0.003186644275063742
2.917139855631698e-06
0.003467298391965142
3.493391939587917e-06
0.003772097198721799
4.505448759022601e-06
0.004103119825155225
5.657659954109882e-06
0.004462675146994081
6.654686948955957e-06
0.004853236698214897
7.292781287883324e-06
0.005277427729805605
7.371622927849203e-06
0.005738050712463409
6.60684924039488e-06
0.006238132492647744
4.571270129756895e-06
0.006781105892045833
0.007362194221295561
5.312330449248604e-10
1.212039410238879e-08
1.996788014248708e-09
3.671066734119126e-08
4.431831896646418e-09
6.236176544723201e-08
7.904871517534162e-09
8.981470804957291e-08
1.25116298161386e-08
1.198589276503539e-07
1.839539072074648e-08
1.533487631836202e-07
2.570656309391544e-08
1.912156110193446e-07
3.464707923740941e-08
2.344735886466419e-07
4.542246856191564e-08
2.842182606258657e-07
5.828401599212296e-08
3.416208080466951e-07
7.347734584126665e-08
4.079203798941046e-07
9.12753376848501e-08
4.844129585768261e-07
1.119285612009672e-07
5.724309218413829e-07
1.356808115054021e-07
6.733121654733036e-07
1.627180591030849e-07
7.883760680558836e-07
1.931834181628002e-07
9.189269753813453e-07
2.271416945883399e-07
1.066269119857298e-06
2.646291539123298e-07
1.231731324420797e-06
3.056510967554755e-07
1.416727225071783e-06
3.502400542387922e-07
1.622810840167772e-06
3.984509723073398e-07
1.851723775536192e-06
4.504262179973055e-07