/*--------------------------------*- C++ -*----------------------------------*\
| =========                 |                                                 |
| \\      /  F ield         | OpenFOAM: The Open Source CFD Toolbox           |
|  \\    /   O peration     | Version:  v1812                                 |
|   \\  /    A nd           | Web:      www.OpenFOAM.com                      |
|    \\/     M anipulation  |                                                 |
\*---------------------------------------------------------------------------*/
FoamFile
{
    version     2.0;
    format      ascii;
    class       volVectorField;
    location    "0.00000054";
    object      U;
}
// * * * * * * * * * * * * * * * * * * * * * * * * * * * * * * * * * * * * * //

dimensions      [0 1 -1 0 0 0 0];


internalField   nonuniform List<vector> 
44064
(
(0.01129443530109712 2.086692803590772e-05 1.480674834104236e-19)
(0.03334418082906068 6.240990783340646e-05 3.983986406633226e-19)
(0.05502818784167203 0.0001034770875258784 6.944753828934947e-19)
(0.07650427970558268 0.0001443940508015653 9.828258219393479e-19)
(0.0979167134190823 0.0001854583986587952 1.310222124885179e-18)
(0.119397733229661 0.0002269106469525364 1.677529899651709e-18)
(0.141068688252164 0.0002689665481789648 2.065869892117335e-18)
(0.1630408102866021 0.0003118267940101027 2.439129613840274e-18)
(0.1854157638648981 0.0003556760531213239 2.853125022566824e-18)
(0.2082860435440648 0.0004006812810636419 3.192543642938381e-18)
(0.2317352100691955 0.000446990664334244 3.565914593497902e-18)
(0.2558379143941912 0.0004947326814859213 3.977800409096767e-18)
(0.280659576374878 0.0005440148054579347 4.435653286142728e-18)
(0.3062554983001423 0.000594922837214107 4.924935416229497e-18)
(0.3326692224095302 0.0006475203348077962 5.380836189500952e-18)
(0.3599295674854815 0.000701849965854081 5.870551902408045e-18)
(0.3880455451628441 0.0007579353864521918 6.421885876641841e-18)
(0.4169980276880744 0.0008157857930276131 7.036287437658485e-18)
(0.4467272219754719 0.0008753977601508429 7.71760402879033e-18)
(0.4771188921808815 0.0009367561642916991 8.261305381725496e-18)
(0.5079963453270585 0.0009998342839270498 8.845434378892997e-18)
(0.5391241329913973 0.001064596719946409 9.325079244742474e-18)
(0.5702257102115881 0.001131000213004314 9.411254520063401e-18)
(0.6010124923686012 0.001198996703204019 9.527113577171123e-18)
(0.6312161584044483 0.001268535294221868 9.559091165319186e-18)
(0.6606136969490249 0.001339562197319121 9.630493737241213e-18)
(0.6890378847709621 0.001412010806610484 9.256220793786033e-18)
(0.7163772580586725 0.001485793376786919 8.998146830800953e-18)
(0.7425692430511021 0.001560795681894043 8.764528284915836e-18)
(0.7675875521185385 0.001636870338406725 8.600381805774879e-18)
(0.7914278840596923 0.001713830183950878 8.566578355667537e-18)
(0.8140966875058681 0.001791444714034833 8.413560002015964e-18)
(0.8356038659997005 0.001869440670901194 8.184987035481361e-18)
(0.855956588626349 0.001947496496108124 7.788319097182478e-18)
(0.8751543959033602 0.002025239416978832 7.562665266892841e-18)
(0.8931840224618534 0.002102242441436446 7.531638692763191e-18)
(0.9100125813362047 0.002177998690688633 7.827921426306788e-18)
(0.9255793117770169 0.002251893533804955 8.778789767139844e-18)
(0.9397754915736865 0.002323464591397084 7.477572291786097e-18)
(0.9525336924824047 0.002392122121818161 6.605109088921421e-18)
(0.9638512065560062 0.002457047875300878 6.255329444196246e-18)
(0.97372001930319 0.002517662706430853 2.157283413567445e-18)
(0.9821362619969264 0.00257344972918328 -2.293242362981931e-18)
(0.9891108096874425 0.002623833805940082 -6.42635019256588e-18)
(0.9946768097391068 0.002668402920503252 -5.220513829453923e-18)
(0.9988950703359005 0.002706710476695554 -8.669890866930294e-18)
(1.001857840907705 0.002738408753982321 -8.470068997336412e-18)
(1.003691536252757 0.002763518141062913 -6.031025426273258e-18)
(1.004556770116465 0.002782580814116348 -4.109685947105004e-18)
(1.004638593022234 0.002791709225487339 -3.096998936695729e-18)
(1.004270435739151 0.002769858779029456 -3.975122620271087e-18)
(1.003693753117896 0.002825236677946525 -1.419487682792951e-17)
(1.003210625147335 0.00282046414977577 -1.005428401814735e-17)
(1.002576308886974 0.002785832008377856 -6.583103671205647e-18)
(1.001831187179491 0.002761995369348258 -2.170669742335809e-17)
(1.001309129326754 0.002756757723334618 -5.73089995048696e-18)
(1.001129445757346 0.002752161890284617 2.340652151349755e-19)
(1.001199285302547 0.002740446302259076 1.88837946002257e-18)
(1.001466387951118 0.002746628551175923 8.811974629329229e-18)
(1.001718790338613 0.002739825143387422 1.706593784303792e-17)
(1.001753699030552 0.002719221953467507 3.119550603027963e-17)
(1.001662886437354 0.002691303940212894 1.543021523756356e-17)
(1.001563236856166 0.002676689853509652 3.278973875630333e-18)
(1.00152660419993 0.002664741879880933 4.322354190328817e-18)
(1.001516418418613 0.002647798044427952 2.781388668290118e-18)
(1.001504287003483 0.002625221455582832 -3.207938873923207e-17)
(1.001489598293992 0.002602437557239629 -4.12780168706275e-18)
(1.001473558714731 0.002578094719283892 6.985098083091711e-18)
(1.001456384620008 0.002551382143551135 -1.926597124581971e-18)
(1.001437889042933 0.002522328283491235 3.321893717434987e-19)
(1.001417893813703 0.002490841953639972 -4.740262528780554e-17)
(1.001396289762392 0.002456723141610158 -6.943601982311227e-18)
(1.001373092651704 0.002419964076495322 -1.830162649203807e-18)
(1.001347688939509 0.002379703217487561 5.252447604602327e-19)
(1.001323594083847 0.002337166754936497 -5.848913960469733e-18)
(1.00129875707487 0.002291072998901676 -1.112882721331787e-18)
(1.001272269983781 0.002241529340628602 -2.365158541288717e-18)
(1.001243993491919 0.002188469800619926 6.933200333563528e-17)
(1.001213828472881 0.002131720121823972 4.798422419330959e-18)
(1.001181728729524 0.002071164361512026 -1.49088496748324e-18)
(1.001147646039122 0.0020066956644156 5.24472134629597e-17)
(1.001111487591504 0.00193823046022327 8.011932915479511e-18)
(1.001073104172937 0.001865677347099126 4.631842630560909e-17)
(1.001032495493497 0.001789018365227921 3.172105437598127e-17)
(1.000989662076122 0.001708274892538302 -4.143824064197532e-17)
(1.00094436899902 0.001623358019804502 -5.058824847242861e-18)
(1.000897082999858 0.00153446384473487 1.023767167586695e-17)
(1.000848012707504 0.001441677286244924 7.2102017510691e-20)
(1.00079722634752 0.001345279876810357 2.783677074364535e-17)
(1.000743555620306 0.00124491949135535 1.972236498770496e-17)
(1.000689044345335 0.001143640765971629 6.476161344935736e-17)
(1.000614082174943 0.001035523797818958 4.319377843599875e-17)
(1.000534339723021 0.0009221886297987774 -9.598084046031097e-18)
(1.000483641030623 0.0008125216445801749 2.783448687770797e-17)
(1.00045534429529 0.000700584809612843 6.274720451948698e-17)
(1.000428373301937 0.0005816534435439184 2.206610769223271e-17)
(1.000403395114315 0.0004583504888128156 3.256478646157205e-17)
(1.000385637092085 0.0003304089914096595 1.936949544185412e-17)
(1.000368907040428 0.0001971263728932989 6.489402123030645e-17)
(1.000346384228846 5.528254664985231e-05 3.760079428237634e-17)
(1.000354752259254 -9.671998608490375e-05 2.620236323671225e-17)
(1.000362665872125 -0.0002608862858672922 2.062397624613103e-17)
(1.000307250603938 -0.0004420728266430392 -2.388938314301903e-17)
(1.000315785317847 -0.0006110182218007975 5.238646444849956e-17)
(1.000939059167613 -0.001329206843172112 3.768420422953135e-18)
(1.000807543797708 -0.00166455489404905 3.01115899368618e-17)
(0.9993559165303754 0.01189310630213969 1.586411384788804e-17)
(0.9948767874657618 -0.04109824218465917 -1.101596417083234e-17)
(0.008546244991714708 1.882671481589961e-08 -2.313153844874792e-20)
(0.02569853402488249 1.374276067722519e-07 -6.67964262303874e-20)
(0.04303428344932018 3.407417892277638e-07 -1.555919396914409e-19)
(0.06067790145523572 6.221547602227304e-07 -2.665039083513706e-19)
(0.07875407166803551 9.711780065715473e-07 -3.76078759985392e-19)
(0.09738578151632948 1.380565892948047e-06 -4.970134249358496e-19)
(0.116690331673123 1.843999624714644e-06 -5.912011990418369e-19)
(0.1367735958499093 2.355384335884812e-06 -6.9094354946899e-19)
(0.15772401604306 2.908610486433016e-06 -8.050992713672807e-19)
(0.1796080510363999 3.498354920234663e-06 -8.498159312235984e-19)
(0.2024668265396017 4.121124845597312e-06 -8.435021927062036e-19)
(0.2263112173593836 4.777098032572333e-06 -7.646629235986322e-19)
(0.2511125188477489 5.472768301355772e-06 -6.775242015177572e-19)
(0.2767900815834539 6.224897176582884e-06 -6.087104028883508e-19)
(0.3031981245856513 7.06555657606483e-06 -4.111143964551572e-19)
(0.3301162973105897 8.047477422463489e-06 -2.331238841667454e-19)
(0.3572568501259636 9.247876794171648e-06 -4.662442695746296e-20)
(0.3842955725417133 1.077349623923329e-05 2.261739678368947e-19)
(0.4109193413146268 1.276495829678228e-05 4.717970580734496e-19)
(0.4368717208089895 1.537539565953797e-05 8.504896107740134e-19)
(0.4619821178293312 1.879126685331756e-05 1.161734376611813e-18)
(0.4861557322685728 2.321759350342691e-05 1.710004781091475e-18)
(0.5093529144971137 2.88728542438084e-05 2.220623403168993e-18)
(0.5315847896048368 3.598710809889181e-05 2.840379011096403e-18)
(0.5529051801207097 4.479697423308807e-05 3.443808583035572e-18)
(0.5734077949243945 5.553929173161295e-05 4.002551824281316e-18)
(0.5932270182634742 6.844985082293004e-05 4.530159260807511e-18)
(0.6125210548207174 8.376465962683589e-05 5.046690110419219e-18)
(0.6314407097615982 0.0001017198420565414 5.516125319415214e-18)
(0.6501047404390199 0.0001225498497421884 6.127145940671288e-18)
(0.6685933082309944 0.000146487159551205 6.448129473293097e-18)
(0.6869601090796091 0.0001737636110857418 6.735290652437934e-18)
(0.7052471913125536 0.0002046146061567617 7.031819741491661e-18)
(0.7234895433402109 0.0002392710128037525 7.329141940085982e-18)
(0.741717354214106 0.0002779525631962963 7.636262377415989e-18)
(0.7599586767534791 0.0003208584444777873 7.988769754966695e-18)
(0.77824306972789 0.0003681607429531182 8.394018090507652e-18)
(0.7966027410896528 0.0004200114314776261 9.030130794641375e-18)
(0.8150566874294324 0.0004764242724348195 8.752767165850269e-18)
(0.8335386661234063 0.0005373400722631328 8.657950869780059e-18)
(0.8518746693914456 0.0006026478423241313 9.349044960332024e-18)
(0.8698278213679046 0.0006720000571818343 8.932584515803588e-18)
(0.8871583242245612 0.0007445552699609794 8.665871567545688e-18)
(0.9038179981887206 0.0008197716163974552 8.4873312742153e-18)
(0.9198083739867761 0.0008969018944847685 8.56089897541204e-18)
(0.9350013180887942 0.0009744860147256387 6.921481759682816e-18)
(0.9492202613633752 0.001050985985055968 5.534852584497525e-18)
(0.9622674512314902 0.001124676364964441 1.925649302262246e-18)
(0.973925856943634 0.00119406454881493 -2.412937227052903e-18)
(0.9839744065835824 0.001259962775493466 -9.49431440445087e-18)
(0.992217497904427 0.001326054465403432 -1.31976041942953e-17)
(0.9984900668755294 0.00134967101746508 -1.121541292816227e-17)
(1.002765349471736 0.001388768259061114 -6.800860631008234e-18)
(1.005308070916452 0.00142851853748032 -1.49582551535071e-17)
(1.006341476478898 0.001457321567553439 -3.013796260646716e-17)
(1.00621906422822 0.001481020146445177 -2.62816584361105e-17)
(1.005682144447084 0.001441750710089515 -3.884692535437811e-17)
(1.005018853855471 0.00145221023129668 -1.175016550891841e-17)
(1.004217726560675 0.001451386879167464 1.649840564125376e-17)
(1.004018902609022 0.001438639669430462 2.769361760807463e-17)
(1.004244889285495 0.00143410471459282 7.207883004025049e-17)
(1.004568202226621 0.001435695735912765 3.914893324767914e-17)
(1.004615914286731 0.0014361786637523 1.364400287872729e-17)
(1.004562409460019 0.00143153593913875 -3.452969612480234e-17)
(1.004508731040996 0.001424607065487235 -1.470566780844355e-17)
(1.004482195711214 0.001420038078745762 -6.097787634554234e-17)
(1.004454722282482 0.001416041287728303 -1.896270242195856e-18)
(1.004423721569911 0.001411498510393711 4.869883007454854e-18)
(1.004389742644807 0.001406481207315039 3.952939400675699e-17)
(1.004353130773586 0.00140124739073275 3.477789737870573e-18)
(1.004313726916267 0.001395710537988123 -3.683203465631756e-17)
(1.004271285623721 0.001389716662845001 -1.439814389320687e-17)
(1.004225649182651 0.001383397151141525 2.297396931651376e-17)
(1.004176582513327 0.001376273743922155 6.660174045099907e-18)
(1.00411896078939 0.001368703210661718 5.090579522654785e-17)
(1.004056827271232 0.001360039268639131 -2.845303562305216e-17)
(1.003990570501798 0.00135044945052927 -7.243098687114788e-19)
(1.003919934722641 0.001339692718254952 2.260127597904199e-17)
(1.003844866522045 0.001327517564978962 4.634845299548383e-17)
(1.003765275480928 0.001313687760271595 9.458197613385591e-19)
(1.003681126315343 0.001297910181305922 5.447043798983472e-17)
(1.003592544075928 0.001279865267152796 -1.842169016757429e-17)
(1.003499667061219 0.001259182197760215 -3.830447763503958e-17)
(1.003402630441567 0.001235434521938301 1.08473628780959e-17)
(1.003301620009783 0.001208178752924078 4.975207450514232e-17)
(1.003197123708236 0.001176857625628376 9.989607257739058e-17)
(1.003088887419994 0.00114091613354691 1.788284879241674e-16)
(1.002977036415888 0.001099628120415935 2.377823111446708e-16)
(1.002862221113673 0.001052461634459189 3.333061354896795e-16)
(1.002746185666392 0.0009977185215967674 4.029097727701903e-16)
(1.002628948605466 0.0009362896825569996 4.505030332739609e-16)
(1.002532870940857 0.000866453371943181 4.805331599060016e-16)
(1.002434587469649 0.0007876598687347341 4.084396822299541e-16)
(1.002342842763004 0.0006957575740796709 4.070627620753112e-16)
(1.00225976349031 0.0005905829849702607 3.765906608533276e-16)
(1.002186576000329 0.000474530076174596 2.977819843254176e-16)
(1.002123857732621 0.0003470442265811898 3.247640331677525e-16)
(1.002053263146134 0.0002047138491760771 2.109644841254989e-16)
(1.002009761719059 4.553403383155912e-05 1.716948725363616e-16)
(1.002033091949444 -0.000127415903993191 1.502876813607815e-16)
(1.001966296700981 -0.0003112933152448328 2.062952704530372e-16)
(1.001962801995074 -0.0005172763870082526 1.686322229926451e-16)
(1.002352557156591 -0.0007758640041522541 1.708596315437009e-16)
(1.002672383946122 -0.0009477637279870791 1.599351801525344e-16)
(1.001867575528 -0.00122024230090237 7.902374612106285e-17)
(1.000283093631763 -0.001354128455198332 2.114539229587891e-17)
(0.9985685716407442 0.00517712689710239 1.688764400062679e-18)
(0.9935186104696626 -0.01978270170273974 2.67669224048978e-18)
(0.008948407337918655 1.637151275264255e-08 6.033081286937114e-20)
(0.02690914563723149 3.8026987211415e-08 1.467159632459035e-19)
(0.04506331430951815 4.615489852097297e-08 2.004755374499841e-19)
(0.0635408839105506 3.613512794566165e-08 2.462484019072243e-19)
(0.08247074377502032 5.83643568582389e-09 3.016035297964689e-19)
(0.1019764174925282 -4.625776134895614e-08 3.352589737706202e-19)
(0.1221682484736515 -1.220724952406331e-07 4.177743915670858e-19)
(0.143132858378594 -2.232555867171323e-07 5.021340580505084e-19)
(0.1649229424809559 -3.509763203453291e-07 6.327670618206998e-19)
(0.187550518212124 -5.039277184383423e-07 6.776326674685967e-19)
(0.2109828338260496 -6.77605297857846e-07 7.145209815047814e-19)
(0.2351365392263609 -8.621591789189596e-07 7.324021427174533e-19)
(0.2598680347557019 -1.040233515848879e-06 7.533037428131329e-19)
(0.284966049960739 -1.18376571110111e-06 8.027828472486638e-19)
(0.3101658855361707 -1.252096970216529e-06 8.296638969083937e-19)
(0.3351798394135146 -1.190842373277685e-06 9.093501525403412e-19)
(0.3597383984419421 -9.332366011316059e-07 9.458470491905445e-19)
(0.3836302314700689 -4.061871387779626e-07 1.069282406367544e-18)
(0.406723129261748 4.607715291614481e-07 1.182752921084624e-18)
(0.4289596697943787 1.749333965749665e-06 1.280879726570381e-18)
(0.4503287982170844 3.529011855556335e-06 1.516662186579753e-18)
(0.47084676223158 5.866649424578431e-06 1.768681441174064e-18)
(0.4905431050719862 8.828016015822702e-06 1.928976783277453e-18)
(0.5094524556361539 1.247809242652449e-05 2.094222588420613e-18)
(0.5276256716447848 1.68834584114723e-05 2.116413306422386e-18)
(0.5451452871580609 2.211547498074295e-05 2.208879346213231e-18)
(0.5621290503307316 2.825708254619714e-05 2.23909400009056e-18)
(0.5787012538914794 3.540985645888906e-05 2.293477526822487e-18)
(0.5949497823544926 4.368932762662024e-05 2.424454371657348e-18)
(0.610932180265804 5.323084692486303e-05 2.393994302095726e-18)
(0.6266984084826398 6.420055351596826e-05 2.556276798256216e-18)
(0.6422927394144258 7.678960186145407e-05 2.728580219323913e-18)
(0.6577556109779151 9.121687740843764e-05 2.947059122536516e-18)
(0.6731224570790117 0.0001077293218111148 3.020729629856749e-18)
(0.6884247679665645 0.0001266066954621576 3.065177983570354e-18)
(0.7036917983507132 0.0001481681342481609 3.005306624043929e-18)
(0.718950602569525 0.0001727727569114606 3.032543151332254e-18)
(0.7342327505394149 0.0002008025537092143 2.777199718362318e-18)
(0.7496017356477456 0.00023272417795424 2.090296051111531e-18)
(0.7651306009082592 0.0002690665150839656 1.287823697198583e-18)
(0.7808657346267029 0.0003103247056684102 2.956991996422501e-19)
(0.7968433355745104 0.0003569541096290713 -5.016753645247065e-19)
(0.8131020312612989 0.0004093160077904077 -1.594406877930531e-18)
(0.8296884256580614 0.0004676939624114972 -2.508021210660563e-18)
(0.8466399131795225 0.0005323945202004563 -2.66891959052258e-18)
(0.8639097217996217 0.0006034205485060701 -3.082926930978073e-18)
(0.881357921582299 0.0006806126492308913 -3.809401875973067e-18)
(0.8987324117575896 0.0007635991945503821 -6.304741274010279e-18)
(0.915641693568878 0.0008515355873277861 -8.136788396554631e-18)
(0.9316161224671718 0.0009422398172406415 -8.909480773191179e-18)
(0.9464993640268385 0.001034075876734702 -1.009893650207379e-17)
(0.9603172065697027 0.001124032278108726 -1.086841564330617e-17)
(0.9728507389977576 0.001210237330807499 -1.110956320311883e-17)
(0.9837577887596097 0.00128917808100111 -1.73332257280792e-17)
(0.9926945382013862 0.001356399541079469 -1.57878382546561e-17)
(0.99936643355588 0.001406913176968396 -1.771314813750489e-17)
(1.003621931274869 0.00146327241003771 -1.265189184139749e-17)
(1.005706732238699 0.001484396579880394 -7.903834340837381e-18)
(1.006234104058508 0.001481503767406068 7.309528928101198e-18)
(1.006028201022414 0.001480228973216086 2.325379731547668e-17)
(1.005584473452663 0.001481714075600128 5.584752575378852e-17)
(1.005443546893193 0.001484157161396944 2.011104610520531e-17)
(1.005479883353841 0.00147273313687914 -5.266059117140527e-18)
(1.005506927461109 0.001461940911694236 5.879609931867352e-18)
(1.005475122248066 0.001454373161651075 -3.064480817863385e-17)
(1.005446787363145 0.0014472534193428 -1.064151664282248e-16)
(1.005426277012162 0.001438349706579891 -2.463773963496132e-17)
(1.005404691679076 0.00142819454876863 2.143961059518504e-17)
(1.005381296651545 0.001417275216692651 5.829104047402663e-17)
(1.005356088005106 0.001405445444810951 3.560074196197049e-17)
(1.005328887830117 0.001392552664508344 -4.277495872056224e-17)
(1.005299564437395 0.001378439138956891 -5.763759000139098e-18)
(1.005268011611543 0.001363212553928635 6.773469000284176e-17)
(1.005234240532171 0.001346717746983935 -4.375925855724336e-17)
(1.005202819179223 0.00132863126972281 3.171677821252129e-17)
(1.005169354193471 0.001308906046997138 4.996137200458821e-18)
(1.00513382790189 0.001287652732068876 7.84491337076029e-18)
(1.005095839988418 0.001264570270252342 5.563353629259152e-17)
(1.005055253185273 0.001239528207593236 3.539792510313703e-17)
(1.005011985906009 0.001212391562459837 -3.221764125585262e-18)
(1.004965932680666 0.001182983432704668 1.01348300759724e-16)
(1.004916902919589 0.001151130931564696 -8.877922377374811e-18)
(1.004864759694942 0.001116645174300024 -3.204554587755263e-17)
(1.00480941160119 0.001079292531784331 -3.206217302653814e-18)
(1.004750859582716 0.00103884110492197 -1.15858718325923e-18)
(1.004688859150698 0.0009950570607808328 1.821446900622111e-17)
(1.004624029486836 0.0009476241901407763 9.886716737307983e-17)
(1.004556753185163 0.0008961091355957114 1.166845275973519e-16)
(1.004487036889057 0.0008404893340201199 1.41742542613916e-16)
(1.004414168086271 0.0007796975258410737 2.27283027807126e-16)
(1.004338991927193 0.0007130159785877719 2.128014961133379e-16)
(1.004260740009326 0.0006423603411301981 1.785350325183983e-16)
(1.004182199553381 0.0005663600585021645 1.066550874952096e-16)
(1.004105888089122 0.0004823235852886918 -3.895588630215406e-17)
(1.004033057875195 0.0003911595814453497 2.229152129674384e-17)
(1.003951205911785 0.0002938596559250881 -4.185252260334711e-17)
(1.003867201683534 0.0001885872328871255 1.724712081337842e-17)
(1.003865146332671 7.204362435039792e-05 -1.606784093204672e-16)
(1.00382600757739 -5.26426820098153e-05 -1.362870133029393e-17)
(1.00361519873155 -0.0001822290300423836 4.79614672648274e-17)
(1.003872509527779 -0.0003587054498363973 2.162722473536639e-16)
(1.004100510824902 -0.0005278406553227856 2.227325766023049e-16)
(1.003650074450737 -0.0006102614242596209 1.53324425844981e-16)
(1.002613765701506 -0.0006063641145841919 1.040262956149103e-16)
(1.001068060245947 -0.0005220334962264458 5.143851274233586e-17)
(0.9990264945677719 -0.0003833782167571115 1.950649737463097e-17)
(0.9969986089033078 0.001573846353345819 1.188341699599759e-17)
(0.9924901614582365 -0.006635166108295547 1.687437337684572e-17)
(0.008851107928476383 5.58887771643164e-09 2.001840819564749e-19)
(0.02661642792995514 4.435675515085104e-08 5.909771800079547e-19)
(0.044572899688827 1.181728120099257e-07 9.42982095052439e-19)
(0.06284887695074681 2.273336381445816e-07 1.292223496857812e-18)
(0.08157117889658318 3.740074139244578e-07 1.679587507797857e-18)
(0.1008601720794918 5.633344796503068e-07 2.109917926170545e-18)
(0.1208208406833431 8.01157482038051e-07 2.524447903527582e-18)
(0.1415306272041917 1.094531875264429e-06 2.926982484381071e-18)
(0.1630274651630902 1.451564172243491e-06 3.314853636881399e-18)
(0.1853019802150193 1.88221432196308e-06 3.76131451771605e-18)
(0.2082939875189949 2.398287235150875e-06 4.176366914636519e-18)
(0.2318894037961549 3.013808491574122e-06 4.592178091536442e-18)
(0.2559160422439156 3.745248208105047e-06 5.081350377885516e-18)
(0.2801443373497856 4.611200554380287e-06 5.580477605774353e-18)
(0.3043066818486345 5.631674706507962e-06 6.001064374947044e-18)
(0.3281292732605946 6.826822175226843e-06 6.376035150639008e-18)
(0.3513710151615833 8.216516130142157e-06 6.762219849338541e-18)
(0.3738587239296622 9.820136552026042e-06 7.168163969382471e-18)
(0.395497987087509 1.165821689793813e-05 7.498524876755379e-18)
(0.4162644753312152 1.375354404782612e-05 7.904819208814139e-18)
(0.4361837404271208 1.613229901204828e-05 8.320174415891984e-18)
(0.4553096138603331 1.882455621090783e-05 8.577593572466846e-18)
(0.4737031767174409 2.186379996214485e-05 8.950791275143453e-18)
(0.4914189051788642 2.528572763829049e-05 9.260950808344731e-18)
(0.5085087753733573 2.912863516366779e-05 9.547182277915479e-18)
(0.5250388408423783 3.343476267944691e-05 9.796595066812722e-18)
(0.5411008702578275 3.825543064483778e-05 1.005482858988117e-17)
(0.5567922411015928 4.365272245678742e-05 1.021389402784023e-17)
(0.5721798347373531 4.969311215638552e-05 1.031965602659012e-17)
(0.5873052625339945 5.644964813747145e-05 1.044312867504061e-17)
(0.6022043519770848 6.400883486487522e-05 1.058848644865089e-17)
(0.6169092150651169 7.246913355021631e-05 1.070481487057421e-17)
(0.6314495980728372 8.194350789633648e-05 1.040431589150107e-17)
(0.6458534745271781 9.256098324189282e-05 1.036550497040589e-17)
(0.660147568472367 0.0001044694556666662 1.019047365611434e-17)
(0.6743578280190928 0.0001178370841616168 9.956793568033237e-18)
(0.6885098554522266 0.0001328551833972418 9.63684639360301e-18)
(0.7026286445734761 0.0001497417806428895 9.364391194396693e-18)
(0.7167385515603759 0.0001687565154134156 8.896214640018619e-18)
(0.7308641016302444 0.0001902093280686538 8.197882016430499e-18)
(0.7450289619270393 0.0002144773368245231 7.675933420068616e-18)
(0.7592558026813887 0.0002420081324473261 6.772212983244528e-18)
(0.7735684740435792 0.0002732892875031844 5.819514035321183e-18)
(0.7880252634095525 0.0003089064979718416 4.715499087279962e-18)
(0.8027227043053921 0.000349608480952022 3.862156208994913e-18)
(0.8177429460622063 0.0003962104330182275 3.465141845507507e-18)
(0.8331376452702213 0.0004495563909140504 2.647691069633636e-18)
(0.8489392582016014 0.0005104335251902626 2.736704969825321e-18)
(0.8651640751934118 0.0005793385504437407 2.678332873871e-18)
(0.8817976897349752 0.000656301800003443 6.775917970288387e-19)
(0.898724492802278 0.00074081398094112 -7.262044769516148e-19)
(0.9156754973208924 0.0008321397982536642 -1.76078833464868e-18)
(0.9321678662136551 0.0009287920259650714 -2.747272493623729e-18)
(0.9475704052580737 0.001027073401024979 -4.518254584405165e-18)
(0.9617262242294109 0.001124424514973551 -7.840767297422321e-18)
(0.9746314268116346 0.001218295482951193 -9.052869709522679e-18)
(0.9858364457066613 0.001304996575102972 -6.712548646483802e-18)
(0.9948373154958948 0.001376956451650106 -2.018211396379669e-18)
(1.001259653618932 0.001431013579179185 9.08348576902559e-18)
(1.004984971934449 0.001465418429898462 2.375475752339679e-17)
(1.006483860250595 0.001483989173264347 4.891398753396205e-17)
(1.006718365452057 0.00148120198998571 5.698216391792146e-17)
(1.006550581117325 0.001480833013837997 4.729275438963581e-17)
(1.006395966532155 0.001472369663295757 1.095363012645928e-17)
(1.006397865565337 0.001464512238089048 -4.09031007248467e-17)
(1.006380140568761 0.001458187785591187 -5.277852421933415e-17)
(1.00635941987678 0.001449856724143031 -6.87386136069515e-17)
(1.006339661370687 0.001440949156822193 -9.423649499784163e-18)
(1.006317361971246 0.001431363335177842 5.608291980681182e-17)
(1.006293331805735 0.001420869980707723 4.65272128552536e-17)
(1.006267739629571 0.001409367865634742 -1.441397877260442e-17)
(1.006240212688194 0.001396727498247957 9.069395522195027e-18)
(1.006210665046048 0.001382931003326203 2.161090066282993e-17)
(1.006178814845075 0.001367897457729441 -7.089901992806134e-17)
(1.006145687324963 0.001351369888452704 -1.882132565255646e-17)
(1.006110530952697 0.001333326164203483 1.512021310713736e-18)
(1.006073078838879 0.001313743715636634 3.193799717289741e-17)
(1.006033121525224 0.001292320525179104 6.51347662948411e-17)
(1.005990577277042 0.001268946961893205 4.707005732753442e-17)
(1.005945330568228 0.001243459659657055 1.709751052454517e-17)
(1.005897332222895 0.001215659491143655 1.207200806708232e-16)
(1.005846626551578 0.001185348778195757 -5.411482057238244e-17)
(1.005793237872281 0.001152327301894168 -2.935141037175655e-17)
(1.005737161481809 0.00111636111388349 -3.304428660620523e-17)
(1.00567841796727 0.00107721083989515 -8.12807636826886e-17)
(1.005617343993535 0.0010346539411863 -7.5033666816803e-17)
(1.005553434938163 0.0009884500313292609 -1.354776938804462e-16)
(1.0054867606404 0.0009381187451306511 -1.515033220406978e-16)
(1.005417834170187 0.0008836556177092937 -1.795922331272245e-16)
(1.005347860746571 0.000824496154427741 -2.240424144488454e-16)
(1.005277126547919 0.0007596044495224806 -2.424558730822882e-16)
(1.005207281398162 0.0006903467023792228 -3.426205825465584e-16)
(1.005135314945129 0.0006159310893789438 -4.186162137140625e-16)
(1.005062097411078 0.000534409717922261 -5.972868358728297e-16)
(1.004993193531363 0.0004463420281179177 -5.619820644630379e-16)
(1.00494479445692 0.0003514692025673 -6.001363500385148e-16)
(1.004914088859558 0.0002491515982859113 -4.65036928083968e-16)
(1.004830694502288 0.0001437232767181427 -5.638904001517913e-16)
(1.004811095141714 1.846542841143807e-05 -3.463084584202349e-16)
(1.005005911720623 -0.0001334025722615451 -1.240061761478101e-16)
(1.004879308969249 -0.0002368391353648932 4.408958799287266e-17)
(1.004246721515732 -0.0002813325316012677 9.914294390153958e-17)
(1.003273596937346 -0.0002256444340115721 8.063909366754513e-17)
(1.001944403118777 -0.0001155977293986712 4.040058381271041e-17)
(1.000357847316113 -2.799512503510991e-05 1.996916208753209e-17)
(0.9985666878126644 6.115532453896297e-05 1.215442395962444e-17)
(0.9965540450056325 0.001426719954657468 8.782164231993016e-18)
(0.9927096688458812 -0.004963399921550473 3.33458792884913e-18)
(0.008405471157986297 -3.734230398487166e-09 1.17462853311583e-19)
(0.0252762462070186 3.459582799885656e-08 3.532209176786903e-19)
(0.04232846242630875 1.301064935465668e-07 5.914838496230681e-19)
(0.05968413724222054 2.877974555750313e-07 8.339080676439193e-19)
(0.07746429016219082 5.116392905520718e-07 1.08211098341869e-18)
(0.0957849602076523 8.085340759522306e-07 1.337600774369979e-18)
(0.1147497224748742 1.187350350468011e-06 1.601652540981652e-18)
(0.1344390312022533 1.658268910493087e-06 1.875158921095731e-18)
(0.1548989529277215 2.232954502442756e-06 2.158475533642004e-18)
(0.176132944651937 2.924064969902021e-06 2.451323631205851e-18)
(0.1980977918691518 3.745009081390156e-06 2.752714342405764e-18)
(0.2207009787654833 4.709038990920024e-06 3.060963207827666e-18)
(0.2437974783710626 5.828571584313011e-06 3.37339941531585e-18)
(0.2671902901263367 7.113577898716279e-06 3.685676851826878e-18)
(0.2906479550556281 8.570678195848092e-06 3.992077726660282e-18)
(0.3139297498999791 1.020234159239565e-05 4.284992452737459e-18)
(0.3368086799474789 1.200690754222861e-05 4.587537282957218e-18)
(0.3591023337155803 1.398056392732938e-05 4.97822449117569e-18)
(0.3806860125509374 1.612027142206196e-05 5.372798521287245e-18)
(0.4014862882735454 1.84257773140308e-05 5.746468370415362e-18)
(0.421477963582221 2.090214976349991e-05 6.103969184239599e-18)
(0.4406745847182112 2.356167391211722e-05 6.39666571527347e-18)