/*--------------------------------*- C++ -*----------------------------------*\
| =========                 |                                                 |
| \\      /  F ield         | OpenFOAM: The Open Source CFD Toolbox           |
|  \\    /   O peration     | Version:  v1812                                 |
|   \\  /    A nd           | Web:      www.OpenFOAM.com                      |
|    \\/     M anipulation  |                                                 |
\*---------------------------------------------------------------------------*/
FoamFile
{
    version     2.0;
    format      ascii;
    class       volScalarField;
    location    "1792";
    object      k;
}
// * * * * * * * * * * * * * * * * * * * * * * * * * * * * * * * * * * * * * //

dimensions      [0 2 -2 0 0 0 0];


internalField   nonuniform List<scalar> 
10965
(
0.02776595507682175
0.0163972845656407
0.007148433793434282
0.003026795275996645
0.00165898532690863
0.001030941023353265
0.0006327132307434326
0.0003676466044706784
0.0001960899842158781
9.287444780155187e-05
3.85264356417165e-05
1.395856993613901e-05
4.4036513269513e-06
1.211082282489169e-06
3.083446440357752e-07
1.532609263499754e-07
5.274368697126762e-07
3.415111308766982e-06
2.758897903261067e-05
0.0002580803863890013
0.001998509683407946
0.009773010536424903
0.03186046825972587
0.08258301837092785
0.1972697265330489
0.5240920986567295
0.05068398218135115
0.04836800868660279
0.04384439986160481
0.03695336556560689
0.02753890408439002
0.01626881458430549
0.00710673611046767
0.003006808215770307
0.00164640631801723
0.001023148552194554
0.0006280336340266209
0.0003649843822395934
0.0001946955921603819
9.222711128796815e-05
3.82656411153636e-05
1.386820540130641e-05
4.376917184213741e-06
1.204445494240805e-06
3.073447804855732e-07
1.552627794466664e-07
5.404768732451269e-07
3.505486846242777e-06
2.830542933336127e-05
0.0002630204587308998
0.002021036384102909
0.009836296038573646
0.03198714480287622
0.08281291929796714
0.1976702032204724
0.5247201426802096
0.05120518387588399
0.05066465244646075
0.04825406828944739
0.0436458737133513
0.03669797384219379
0.02730123036977491
0.01613187699060568
0.007061216971163313
0.002985916196671797
0.001633508853566819
0.001015169873003573
0.0006232403058040053
0.0003622548110642869
0.000193263887947792
9.156192487601097e-05
3.799760490208775e-05
1.377531647820834e-05
4.34942692173429e-06
1.197620276431949e-06
3.06330793674945e-07
1.574031621995842e-07
5.54382514441102e-07
3.601799455931356e-06
2.906294881216027e-05
0.0002681816827928742
0.002044278884153106
0.009901027709677112
0.03211618336554715
0.0830477774782022
0.1980775343324331
0.5253540106446577
0.05048749428363054
0.05126716515874954
0.05063728875866762
0.04813343058303222
0.04344110264911923
0.03644029468204875
0.02706218184195183
0.0159932939118176
0.007014724584642747
0.002964972415477484
0.001620645425712536
0.00100720706296134
0.0006184549973791627
0.0003595293004232936
0.0001918338120292345
9.089740151335171e-05
3.77298358208226e-05
1.368250729197724e-05
4.321952033140771e-06
1.19079898540009e-06
3.053317611797484e-07
1.596220742196571e-07
5.687533490672543e-07
3.701168569340944e-06
2.983848339541786e-05
0.0002734250256178646
0.002067776714452623
0.009966293541413632
0.03224617524148783
0.08328758697107515
0.1984886928242674
0.5259940349408984
0.04901404806139481
0.0506143753236561
0.05132083027496332
0.0506025461025392
0.04800680079710556
0.04323286130485457
0.03618155414957516
0.026822981732113
0.01585385393491188
0.006967531786985156
0.002944020358388048
0.001607818474968135
0.0009992579282783077
0.0006136755673006772
0.0003568062612495249
0.0001904043807440127
9.023302390361333e-05
3.746210723200199e-05
1.358969728841736e-05
4.294469238549128e-06
1.183976278766386e-06
3.043475556196915e-07
1.619241713927343e-07
5.836156547250794e-07
3.803736227531027e-06
3.0632735124781e-05
0.0002787523774567236
0.002091520580465906
0.01003201331075624
0.03237670298944385
0.08353150262177386
0.1989028362435282
0.5266396337555143
0.0472112700031692
0.04918227947742949
0.05073264679891622
0.05136622016721641
0.05056058313517448
0.04787431905095016
0.0430207320650934
0.03592136239322936
0.02658333051288922
0.01571341369592691
0.006919598889241682
0.002923032086563793
0.001595012139218895
0.0009913131541046062
0.0006088966032557465
0.0003540827009507698
0.0001889740966695344
8.956813306103705e-05
3.71941668728763e-05
1.349680357984079e-05
4.266955457619616e-06
1.17714694754796e-06
3.03378145117015e-07
1.643144328623948e-07
5.989972794418165e-07
3.909652320097742e-06
3.144646291953019e-05
0.0002841669936989856
0.002115519682053435
0.01009820328483075
0.03250792231259082
0.08377971137763664
0.1993199065326293
0.5272902848442446
0.04533220960896277
0.04739882314852588
0.04934255137662905
0.0508424901165755
0.05140346484534913
0.05051125683279702
0.04773585248048522
0.04280432489761402
0.0356587807609856
0.02634287729513884
0.0155718089893173
0.00687087933059686
0.002901979021450838
0.001582210779544621
0.000983363615313588
0.0006041128335963128
0.0003513557195506535
0.0001875415108441697
8.890209159193518e-05
3.692577084289756e-05
1.340374602661258e-05
4.239388370190591e-06
1.170305972190641e-06
3.024236023037e-07
1.667981693174847e-07
6.149276440892738e-07
4.019073910381679e-06
3.228045080067721e-05
0.0002896721656004873
0.002139783066740832
0.01016487845270604
0.03263968155676519
0.08403237926455322
0.1997401510132518
0.5279455706342966
1.729477683874466e-08
4.709481201181205e-07
3.078170110658869e-06
1.079725326363701e-05
2.757333450506151e-05
5.840329570851963e-05
0.0001093999804714538
0.0001875653583341459
0.0002999289427192293
0.0004518152190055258
0.0006446094059560529
0.0008743544296894553
0.001132622136380802
0.0014094307425468
0.001696209724823309
0.00198719133688994
0.002279266433634943
0.04552764082993555
0.04757945968864648
0.04949510214778008
0.05094412426975834
0.05143259033637151
0.05045448806141263
0.04759119362202158
0.04258334041663294
0.03539283513667767
0.02610094665227072
0.01542892819316708
0.006821332415008407
0.002880834288021503
0.001569399503676616
0.0009754005462844594
0.0005993191569957219
0.0003486224973855753
0.0001861052105820564
8.823427716777907e-05
3.66566809823535e-05
1.33104463877381e-05
4.211746185626684e-06
1.16344847144181e-06
3.014840982168538e-07
1.693810401426067e-07
6.314378161706896e-07
4.13216541101947e-06
3.313550758585728e-05
0.0002952712151066497
0.002164319608927005
0.01023205283172568
0.03277207841155998
0.08428836910022391
0.2001635520976684
0.5286050922817457
1.746188673696934e-08
4.754961962077971e-07
3.107877875775047e-06
1.090137046946588e-05
2.783889458228196e-05
5.896466613380092e-05
0.0001104479627096017
0.0001893516095408406
0.0003027577133806154
0.0004560141707690044
0.0006504821679920391
0.0008821382311743511
0.001142479334925017
0.001421474052721954
0.00171053046578812
0.002003866925477691
0.002298348312551304
0.002592685888258939
0.04571702568951375
0.04775335142801621
0.04964007871039242
0.05103763809599206
0.05145351246619449
0.0503900676957954
0.04743999975916596
0.04235693991659423
0.03512424510968456
0.02585752325815567
0.01528466806127463
0.006770919136728004
0.002859572283031031
0.001556564055914002
0.000967415493773482
0.0005945106285331182
0.0003458802910064855
0.0001846638188317703
8.756408277370197e-05
3.638666500866355e-05
1.321682835397902e-05
4.184007649165443e-06
1.156569705147838e-06
3.005599083287997e-07
1.720690776397517e-07
6.485606058873711e-07
4.24909885382863e-06
3.401246712670541e-05
0.0003009674916493386
0.002189137984387339
0.01029973721227241
0.03290520392953818
0.08454781962534849
0.2005901760063848
0.5292684771628918
1.763185849173778e-08
4.801241238887855e-07
3.138121465008323e-06
1.100742826028805e-05
2.810961455916988e-05
5.953753681762573e-05
0.0001115188716306312
0.0001911800866434772
0.0003056592132915897
0.0004603299861859964
0.0006565279211226563
0.0008901537041801921
0.00115261110336873
0.001433795779129895
0.001725073850240109
0.002020639923763952
0.002317340480654226
0.00261387072297218
0.002910010578671139
0.04384575431286501
0.04590049304367094
0.04792062513762523
0.04977756211646595
0.05112303848310237
0.05146608977844631
0.0503179249495166
0.04728155507214084
0.04212512239240935
0.03485277097656864
0.02561241477851038
0.01513891307217266
0.006719598031874841
0.002838167869290792
0.001543690622990705
0.0009594002508964834
0.0005896824443743172
0.0003431264343695952
0.0001832159969531185
8.689091851384467e-05
3.611549725080487e-05
1.31228177875985e-05
4.15615210534609e-06
1.149665090336267e-06
2.996514217213133e-07
1.748687133878999e-07
6.663306662113274e-07
4.370054151599308e-06
3.491218839684596e-05
0.000306764368141209
0.002214246639959411
0.01036794222858086
0.03303917887402451
0.08481286506613837
0.2010201439984237
0.529935406882765
1.779400281795875e-08
4.845384491943402e-07
3.166966210527655e-06
1.110857312866685e-05
2.836779471209918e-05
6.008395646461526e-05
0.0001125407487882554
0.0001929261958938118
0.0003084334567171647
0.0004644638031811217
0.0006623317409330767
0.0008978683700222679
0.001162389289853892
0.001445719015778289
0.001739180517897819
0.002036942479182301
0.002335831556660202
0.002634526721087643
0.002932796945073686
0.003230987036315938
0.003529687281676374
0.003829702306578918
0.004131835530757233
0.004436881216675605
0.004745617737310834
0.005058800628441202
0.005377161205388389
0.005701408342002798
0.006032231858090303
0.006370306662586197
0.006716297198671587
0.007070861956219589
0.007434657948780425
0.00780834512899479
0.00819259076525658
0.008588073817497171
0.008995489380206695
0.009415553262858917
0.009849006786503411
0.0102966218874701
0.010759206617032
0.01123761114675202
0.01173273437837476
0.0122455312876367
0.01277702112779214
0.01332829663003732
0.01390053436103027
0.01449500639174838
0.0151130934570566
0.01575629977824808
0.01642626972785003
0.01712480649814323
0.01785389290279116
0.01861571437858131
0.01941268416091689
0.02024747040886219
0.02112302480527242
0.02204261171641024
0.02300983636317288
0.02402866947318221
0.02510346446762656
0.02623896112716537
0.02744026662765661
0.02871280044463379
0.03006218337723326
0.03149404206370117
0.03301368797668435
0.03462561249606791
0.03633271522558589
0.03813514780433235
0.04002860462834724
0.04200181047551565
0.04403134357921533
0.04607811250785399
0.04808140035041876
0.0499077043621305
0.05120029708206594
0.05147048716799037
0.0502377230147265
0.04711619803501686
0.04188788813952005
0.03457786608897775
0.02536536726882256
0.01499154017805608
0.00666732564187635
0.002816596271687193
0.001530765800183121
0.0009513468490688667
0.0005848299395128834
0.0003403583391939449
0.0001817604455615347
8.621421201325096e-05
3.584295882856714e-05
1.302834276765571e-05
4.128159512541476e-06
1.14273020603825e-06
2.987591481913941e-07
1.777868046969706e-07
6.847845912120273e-07
4.495219326570118e-06
3.583555528232373e-05
0.000312665234981621
0.002239653773200059
0.01043667807552643
0.03317371209143726
0.08508329463534832
0.2014541195697452
0.5306056310951879
1.794708074425521e-08
4.887060596766005e-07
3.19419968322359e-06
1.120407318715409e-05
2.861159514906519e-05
6.060007373971541e-05
0.000113506430319539
0.0001945776921521506
0.0003110609030895869
0.0004683863540434814
0.0006678524334897969
0.0009052275688877947
0.001171744934183037
0.001457159925957957
0.001752750783980594
0.002052657169061029
0.002353683420841134
0.002654491434587006
0.002954840313192063
0.003255073023333423
0.003555819256609506
0.003857835688333631
0.004161923222120827
0.004468886028347956
0.004779512275546074
0.005094566448568822
0.005414787883879917
0.005740892578954581
0.006073576664721862
0.006413520657788055
0.006761394013297893
0.007117859741442962
0.007483578977913171
0.007859215487236141
0.008245440110661953
0.008642935217394336
0.009052399207629234
0.009474551156362393
0.009910135668303699
0.01035992803826263
0.01082473981283918
0.01130542485256116
0.01180288600850228
0.01231808253182659
0.01285203834737952
0.01340585133222474
0.01398070375227468
0.01457787401929478
0.01519874993979321
0.01584484363434942
0.01651780829741378
0.0172194569587758
0.01795178336790563
0.01871698506861261
0.01951748859524732
0.02035597657536277
0.02123541620310981
0.0221590881272034
0.02313061411138497
0.0241539808352336
0.02523355569218375
0.02637408828209355
0.02758068811040832
0.02885876446014259
0.03021390789054853
0.03165168368617199
0.03317729472887485
0.03479505337611971
0.03650757699186685
0.03831458652962272
0.04021113763370286
0.04218503346064618
0.04421164672576829
0.04624994526224434
0.04823578841028527
0.05003051061529346
0.05126948978524412
0.05146655613021084
0.0501496625972005
0.04694379140355141
0.04164496022840437
0.03429864657129345
0.0251159334724316
0.0148424121999302
0.006614058449050636
0.002794833276069497
0.001517776634768313
0.0009432475755453899
0.0005799485919772796
0.0003375734950382908
0.0001802959038564407
8.553340803986288e-05
3.556883746165292e-05
1.293333353554115e-05
4.10001042588202e-06
1.135760791099211e-06
2.978837242945512e-07
1.808306618953444e-07
7.039610149147865e-07
4.624790716704211e-06
3.678347615800117e-05
0.0003186734929021923
0.002265367291620073
0.01050595192603297
0.03330889539174424
0.08535706575224743
0.2018929210731597
0.5312789876159545
1.809668848917937e-08
4.927793196536603e-07
3.220817723275285e-06
1.129742287846503e-05
2.884994812521336e-05
6.110483516782894e-05
0.0001144514551192118
0.0001961955111641545
0.0003136386871209199
0.000472242716231563
0.0006732938112469088
0.0009125017782346914
0.001181019473913021
0.001468532194339819
0.001766269920170744
0.002068338765696537
0.002371516527082684
0.002674444465641488
0.00297686851894091
0.003279126203183562
0.003581847867882446
0.003885794921344462
0.004191775458544818
0.004500601708341733
0.004813069881405463
0.005129952057669768
0.005451994534528914
0.005779919595657592
0.006114429016445359
0.006456208382173028
0.006805931720912976
0.007164266200417323
0.007531876778137549
0.007909430772205172
0.008297602381950276
0.008697077193939971
0.009108556750246419
0.009532763242383535
0.009970444425019744
0.01042237883068968
0.0108893813872313
0.0113723095387612
0.01187206998475577
0.01238962615330154
0.01292600654577977
0.0134823140894991
0.01405973665333142
0.01465955888773374
0.0152831755651114
0.0159321065842991
0.01660801382430296
0.01731271999042533
0.01804822957608954
0.01881675198291607
0.01962072674147013
0.02046285055973081
0.0213461056496661
0.02227378831273597
0.02324953605818721
0.02427735049172467
0.02536161167556428
0.026507077357307
0.02771885723117153
0.02900234762767504
0.03036310532616694
0.03180662971143145
0.03333800924368404
0.03496136986571068
0.03667903739205525
0.03849029021279199
0.04038952736007594
0.04236358200113648
0.04438655048560659
0.04641589540368216
0.04838393773180649
0.05014600331116657
0.05133053112034745
0.05145410397246779
0.05005326256172783
0.04676395962425277
0.04139574250153806
0.03401485119562538
0.02486378777673921
0.01469142695476096
0.006559753480815078
0.002772855308901457
0.00150471064925937
0.0009350949820703502
0.0005750340262358221
0.0003347694689993251
0.0001788211494686695
8.484796831122907e-05
3.529292738166288e-05
1.283772245263503e-05
4.071685988465281e-06
1.128752743849107e-06
2.970259202406354e-07
1.840080774406921e-07
7.239007137656941e-07
4.758973172487667e-06
3.775688334648299e-05
0.0003247925449589546
0.002291394787124974
0.01057577184044976
0.0334448683206333
0.08563630005538068
0.2023307923401998
0.5319556729434628
1.824089418454615e-08
4.967054094472305e-07
3.246473597111887e-06
1.138739967732502e-05
2.907971259185598e-05
6.159154110839044e-05
0.0001153631847736068
0.0001977578667212664
0.0003161319266869209
0.0004759806338111393
0.0006785823449817122
0.0009195933384809026
0.001190089543158018
0.001479686270333593
0.001779562625460016
0.002083787676338511
0.002389109893005571
0.002694148411930824
0.002998635595383482
0.003302903733446726
0.003607584430557185
0.003913444470982236
0.004221299441599873
0.004531969801279693
0.004846259913704928
0.005164949515385761
0.005488791895032514
0.005818515629648602
0.006154828128998448
0.006498420026587006
0.006849969895323574
0.007210149026657952
0.007579626159207502
0.007959072123770622
0.00834916442755311
0.008750591825744444
0.00916405894397717
0.009590291032175234
0.01003003892894679
0.01048408433435741
0.01095324548021737
0.0114383833120303
0.01194040828600336
0.01246028790992833
0.01299905515397088
0.01355781787873511
0.01413776942759629
0.01474020055059629
0.01536651282880706
0.01601823377049423
0.01669703374767255
0.01740474492703559
0.0181433822980602
0.01891516684000158
0.01972255074109752
0.0205682443847823
0.02145524450796578
0.02238686244285916
0.02336675065836603
0.02439892469221124
0.02548777598521864
0.02663806878261136
0.0278549108389157
0.02914368279582128
0.03050990413671602
0.03195900383984658
0.03349595020462753
0.03512467543694191
0.03684720435301186
0.03866235969693374
0.04056386139216336
0.04253748323458664
0.0445559824434212
0.04657577759651418
0.04852584683148263
0.05025408032296758
0.05138324958124078
0.05143282903436762
0.04994820877489315
0.0465760197845386
0.04113946911602656
0.0337265164141684
0.02460880072752419
0.01453847852690442
0.006504367740951309
0.002750639405864563
0.001491555837584458
0.0009268818860573939
0.0005700820134540021
0.0003319439067663128
0.0001773349989118638
8.415737176960765e-05
3.5015029407439e-05
1.274144403012119e-05
4.043167936523976e-06
1.12170212525894e-06
2.961866480875729e-07
1.873273570759064e-07
7.446467120793168e-07
4.897980238185827e-06
3.875673240842578e-05
0.0003310257875220587
0.002317743503521779
0.01064614355263941
0.03358134530461298
0.08592158938111823
0.2027672078843718
0.5326341643880549
1.837984969791718e-08
5.004885479174525e-07
3.271195403946697e-06
1.147410424487295e-05
2.930115200063187e-05
6.206076818587934e-05
0.0001162427482909008
0.0001992668103602988
0.0003185441451243616
0.0004796058482815227
0.0006837268656082671
0.0009265149885211522
0.001198972347279829
0.001490644051684572
0.00179265546917116
0.002099035036796816
0.002406499151526375
0.002713643414889955
0.00302018625882272
0.003326454958457069
0.003633082776263034
0.003940842268325696
0.004250556831856936
0.004563055387162642
0.004879150607802127
0.005199629990413355
0.005525253876348827
0.005856757169092253
0.006194852926726701
0.006540236830009307
0.006893591984067204
0.007255593784643236
0.007626914723380744
0.008008229110267752
0.008400217722320401
0.008803572437103734
0.009219000915802682
0.00964723140863376
0.01008901777840814
0.01054514482266483
0.01101643400380428
0.01150374968473411
0.01200800598895982
0.01253017440278188
0.01307129225697962
0.01363247222318591
0.01421491298713533
0.01481991125027469
0.01544887523831398
0.01610333988258842
0.01678498384099904
0.01749564850095547
0.01823735907153013
0.01901234778453081
0.01982307910208903
0.02067227662277359
0.02156295104318934
0.02249842804322027
0.02348237419956736
0.02451881791277885
0.02561216066466311
0.02676717149192721
0.02798895403623396
0.02928287046387755
0.03065439939034152
0.03210889480642626
0.03365119900591446
0.03528504305216187
0.03701214162632789
0.03883085142126229
0.04073420579358088
0.0427067628932329
0.04472008414961513
0.04672964682533248
0.04866125564784257
0.05035453129510001
0.05142741212375648
0.05140257720250162
0.04983402546356667
0.04637954874308541
0.04087619757085011
0.03343338944748053
0.02435081141390372
0.01438346055423849
0.006447858289908853
0.002728163204617277
0.001478300663051859
0.0009186013745387175
0.0005650884743443344
0.0003290945340509181
0.0001758363086445005
8.346111502509099e-05
3.473495112014791e-05
1.264443497080925e-05
4.014438613486e-06
1.114605164230634e-06
2.953669708268339e-07
1.907973525128238e-07
7.662443888371243e-07
5.042034305681311e-06
3.978400118519948e-05
0.0003373766002335552
0.002344420276585191
0.01071706306091669
0.03371843045593078
0.08621098355375359
0.2032063176822233
0.5333145743409402
1.851361636154557e-08
5.041304020337889e-07
3.294994036744691e-06
1.155757476311918e-05
2.951436403714814e-05
6.251272497240703e-05
0.0001170905457373935
0.0002007230642892658
0.000320876605453433
0.000483120518274592
0.0006887309319318879
0.0009332722594317052
0.001207675876755165
0.001501416264259968
0.001805561974993134
0.002114097098960395
0.00242370317365714
0.002732950862982276
0.003041544335484759
0.003349806077886088
0.003658371422804638
0.003968019101950051
0.004279580647758159
0.004593893679584169
0.004911779346093545
0.005234033010513849
0.005561422135508875
0.005894687989776885
0.006234549298035338
0.006581706790681388
0.006936848097596093
0.007300652699828353
0.00767379681914072
0.008056958210770444
0.008450820883471159
0.008856079793680104
0.009273445585453623
0.009703649453233624
0.01014744821709153
0.01060562970067029
0.01107901851521437
0.01156848235069032
0.0120749388969318
0.01259936350799116
0.01314279774848092
0.0137063589648403
0.0142912510281333
0.01489877641984191
0.01553034981666601
0.01618751335661603
0.01687195373653143
0.01758552128805544
0.01833025112153195
0.01910838635273159
0.01992240329057549
0.02077503824011866
0.02166931525358765
0.0226085736194648
0.02359649311493023
0.02463711387478584
0.0257348459990272
0.02689446150955169
0.02812105762153232
0.02941997505977003
0.0307966477354329
0.03225634972542987
0.03380379105618316
0.03544249417766473
0.03717385673454902
0.038995772908358
0.04090065114896596
0.04287136141148747
0.0448788664413832
0.04687751588702541
0.0487899365869244
0.0504471107310633
0.05146275016790254
0.05136303111194788
0.04971056381124466
0.04617423387374323
0.04060584258703372
0.03313510974138559
0.02408949298644102
0.01422626150231039
0.006390182979789395
0.00270540499314647
0.001464934070978546
0.0009102468110894947
0.0005600494835827623
0.0003262191590110314
0.000174323976306427
8.275871291495999e-05
3.445250704805229e-05
1.254663423350444e-05
3.985480984691356e-06
1.107458263189046e-06
2.94568112125241e-07
1.944274957628523e-07
7.887415846435505e-07
5.191366735518963e-06
4.083968859927645e-05
0.0003438483339809377
0.00237143146946163
0.01078852689705528
0.03385622780627819
0.08650485949152664
0.2036473695880801
0.5339971927431746
1.864233123775535e-08
5.076347044381379e-07
3.317893885881787e-06
1.163789682566391e-05
2.971956835337053e-05
6.294788275545656e-05
0.0001179074831192555
0.0002021282520402304
0.0003231320756143977
0.0004865291541545645
0.0006936015202565624
0.0009398752804021825
0.001216213849511399
0.001512020289790874
0.001818302958946875
0.002128997734317862
0.00244074849637208
0.002752099629915492
0.003062740782171985
0.003372989940915324
0.003683484967224757
0.003995011203930156
0.004308408665732309
0.00462452392537604
0.004944186781796417
0.005268200583832336
0.005597339989140306
0.005932352676612053
0.006273963059535637
0.006622876925475587
0.006979786422925619
0.007345375102619067
0.007720322892110343
0.008105310961421724
0.008501026512606867
0.008908167535698522
0.00932744760538875
0.009759600801936283
0.01020538683530182
0.01066559648042733
0.01114105741189703
0.01163264055387493
0.01214126705599275
0.01266791602189348
0.01321363312034035
0.01377954022266493
0.01436684622351257
0.01497685919659806
0.01561100006270156
0.01627081793047281
0.01695800726846173
0.0176744270454063
0.01842212192112542
0.01920334548627214
0.02002058541315985
0.02087659014744592
0.02177439641266335
0.02271735628081411
0.02370916171776411
0.02475386333893101
0.02585587828630975
0.02701997957551333
0.02825125544262809
0.02955502185939503
0.03093666372061454
0.03240136947795742
0.03395370924290488
0.03559698618211608
0.03733226405507755
0.03915693714525988
0.04106265207911453
0.04303110306652686
0.04503224478808725
0.04701931295346613
0.04891167950660529
0.05053156064246113
0.05148897165676384
0.05131386739335716
0.04957746054030563
0.04595983435328768
0.04032809660000634
0.03283195155440127
0.02382479236050117
0.01406679525917875
0.00633130097995167
0.002682343777908245
0.001451445505796365
0.00090181184769004
0.0005549612747116728
0.0003233156753282825
0.0001727969421011483
8.204969914191775e-05
3.416751886773913e-05
1.244798309400046e-05
3.956278656227158e-06
1.100258004886586e-06
2.937914667898644e-07
1.982278349065069e-07
8.121887078296242e-07
5.34621793633999e-06
4.192481314035109e-05
0.0003504442982281822
0.002398782943089929
0.01086052815656162
0.033995022326751
0.08680367534486172
0.2040891271332342
0.5346827251366656
1.87659533365498e-08
5.110003335036759e-07
3.339887588057887e-06
1.171504465568527e-05
2.991669987361984e-05
6.336610882029452e-05
0.0001186933338695347
0.000203482057236088
0.0003253102419006477
0.0004898317067113116
0.0006983393138043237
0.0009463260572752856
0.001224590110755173
0.001522462083716472
0.001830886495329772
0.002143746983304062
0.002457646931126125
0.002771103130591244
0.003083790489263066
0.003396022824476178
0.003708441007226937
0.004021837441393608
0.004337060981982903
0.004654967414770796
0.004976395370691301
0.005302156303953838
0.005633032146150827
0.005969777032232526
0.006313121089232581
0.006663775168843943
0.007022435932510671
0.007389790986841838
0.007766523939166992
0.008153319343404528
0.008550867554566643
0.008959869548751572
0.00938104177826697
0.009815121143801765
0.01026287017633359
0.01072508252020754
0.01120258882299722
0.01169626314049281
0.01220702996870776
0.01273587203156504
0.01328383895696355
0.01385205698184388
0.01444173983915486
0.01505420099184702
0.01569086737269479
0.01635329479724762
0.01704318520825028
0.01776240586941224
0.01851301059474853
0.01929726299394005
0.02011766156995504
0.02097696627281608
0.02187822574533677
0.02282480392504318
0.02382040384967514
0.02486908522178683
0.02597527048877753
0.02714373144460048
0.02837954450481792
0.02968799721029179
0.03107442060048119
0.03254391108710592
0.03410089018769022
0.0357484297404667
0.03748724236076777
0.03931419909034562
0.04122018219133834
0.04318590502000901
0.04518011597877435
0.04715489262609215
0.04902624106019065
0.05060759201138171
0.05150574896123754
0.05125471725167214
0.0494342707036194
0.04573580902938306
0.04004251924082396
0.03252355679936652
0.02355677470471625
0.01390496763063077
0.006271173189171132
0.002658959353459964
0.001437824933847404
0.000893290435762698
0.0005498202480193246
0.0003203820652354275
0.0001712541908360622
8.133362697286878e-05
3.387981571486091e-05
1.234842522941878e-05
3.926815897961347e-06
1.093001160212245e-06
2.930386120737152e-07
2.022090713189079e-07
8.366388390705694e-07
5.506837394348976e-06
4.30404110465287e-05
0.0003571677458964373
0.002426479899699278
0.01093304963774182
0.03413544827080856
0.08710850530038237
0.2045372030225273
0.535372300619083
1.888444678518796e-08
5.142263127291298e-07
3.360968762093881e-06
1.178899599674616e-05
3.01057031921034e-05
6.376729336475842e-05
0.0001194479214379777
0.0002047842672123069
0.0003274109945374582
0.0004930284938979567
0.0007029455978981105
0.0009526274825181258
0.0012328096686519
0.001532748973750529
0.001843322127093171
0.00215835632653569
0.002474411587623378
0.002789975838127195
0.003104709097727611
0.003418921391809918
0.003733257122709691
0.004048516231562447
0.004365556785592084
0.0046852440556017
0.005008425691270836
0.005335921378937281
0.005668520404218081
0.006006983407606556
0.006352046254524004
0.006704424869077907
0.007064820420780053
0.00743392455416862
0.007812424532102888
0.00820100825689256
0.008600369194583559
0.009011211257119491
0.009434253714473709
0.009870236222457029
0.01031992405478605
0.01078411363868757
0.01126363849889737
0.0117593757117126
0.01227225299574508
0.0128032565591099
0.01335343983253694
0.01392393324283801
0.01451595516701745
0.01513082423522714
0.01576997314012794
0.01643496412193806
0.01712750626981531
0.01784947477038682
0.0186029321614797
0.01939015156739239
0.02021364173140019
0.02107617340990652
0.02198080632378568
0.02293091526568993
0.02393021309987789
0.02498276708894889
0.02609300306758576
0.02726568919550832
0.02850588700701474
0.02981885168210824
0.03120985536223862
0.03268389593932286
0.03424523810437373
0.03589671232556076
0.03763866941537473
0.03946745178667915
0.0413731934502635
0.04333566640333578
0.04532233829636687
0.0472840458407723
0.04913332939828646
0.05067486723241834
0.05151269794234325
0.05118514621991148
0.04928042764992269
0.04550206903570189
0.03974829214514516
0.0322076248953839
0.02328436822738029
0.0137406850573015
0.006209762842137199
0.002635232375710924
0.001424062867022355
0.0008846768410545455
0.0005446229775711317
0.0003174164046836286
0.00016969475398529
8.061007029590304e-05
3.358923449544063e-05
1.224790683135226e-05
3.897077672059829e-06
1.085684697573721e-06
2.923113198384342e-07
2.063825982827167e-07
8.62147832584414e-07
5.673483649201201e-06
4.418753410654133e-05
0.0003640218570295261
0.002454526854084917
0.01100608515041859
0.03427896425569935
0.08741661482729804
0.2049925644284423
0.5360700949066189
1.899768580725117e-08
5.173092147660612e-07
3.381115012137644e-06
1.185967246499069e-05
3.028637961542831e-05
6.41510233990909e-05
0.0001201705028792709
0.0002060337043782376
0.0003294327002247502
0.0004961175969787067
0.0007074185934121643
0.0009587785163747476
0.001240872765263281
0.001542882757734985
0.001855613184998944
0.002172830425787963
0.002491048215051821
0.002808724386681093
0.003125503976570147
0.003441693646525784
0.003757941881147213
0.004075056652249273
0.004393905623088619
0.004715363825481167
0.005040288119458483
0.005369506550260025
0.005703815838498639
0.006043983178659405
0.006390750198485043
0.006744837901108624
0.007106951955694644
0.007477788026012002
0.00785803700067172
0.008248390092186387
0.008649543830827836
0.009062205008293434
0.009487095648550985
0.009924958087490854
0.0103765602582298
0.0108427012773627
0.01132421743769043
0.01182198871795745
0.01233694592618752
0.01287007860117402
0.01342244381018722
0.01399517597910447
0.01458949791572834
0.01520673317532842
0.01584831994040916
0.01651582656247893
0.01721096892588241
0.01793562973255548