/*--------------------------------*- C++ -*----------------------------------*\
| =========                 |                                                 |
| \\      /  F ield         | OpenFOAM: The Open Source CFD Toolbox           |
|  \\    /   O peration     | Version:  v1812                                 |
|   \\  /    A nd           | Web:      www.OpenFOAM.com                      |
|    \\/     M anipulation  |                                                 |
\*---------------------------------------------------------------------------*/
FoamFile
{
    version     2.0;
    format      ascii;
    class       volScalarField;
    location    "1792";
    object      nut;
}
// * * * * * * * * * * * * * * * * * * * * * * * * * * * * * * * * * * * * * //

dimensions      [0 2 -1 0 0 0 0];


internalField   nonuniform List<scalar> 
10965
(
0.0007643567960436043
0.0005217498657977179
0.0003093315253672841
0.0002036999549369645
0.0001691721032850494
0.0001495721838347449
0.0001260085928821492
9.710956203080187e-05
6.603102966042405e-05
3.806264115571317e-05
1.820484106575526e-05
7.240050368340548e-06
2.424737469845476e-06
6.947274478736302e-07
1.824641101249135e-07
9.301099076327339e-08
3.268961356138016e-07
2.150368383854344e-06
1.727011401411411e-05
0.0001354165190648835
0.0005789187945676855
0.001553000094363492
0.003329527367036583
0.006221872844381124
0.01037664727564576
0.01046080892667068
0.001036441141742347
0.000969821156096254
0.0009168162292295419
0.0008734361712968141
0.0007632123442281182
0.0005216170625097224
0.0003096282401738131
0.0002035924080822038
0.0001689006140924563
0.0001492328997420777
0.0001256306756887173
9.674744749658329e-05
6.573688040642041e-05
3.786827423532802e-05
1.8104138405413e-05
7.199258242412663e-06
2.411538545884947e-06
6.912830915771951e-07
1.81957919029719e-07
9.426712892149983e-08
3.351165032961735e-07
2.208018672269899e-06
1.771437018094598e-05
0.0001376595009449325
0.0005833299179296557
0.001559684045966091
0.003340351160924341
0.006242058076878615
0.01040515293483957
0.01046988785287324
0.00111669395228812
0.001036257994109775
0.000969236157297758
0.0009162130497112725
0.000866899420936109
0.0007618096349398197
0.000521285956353622
0.0003098407713452724
0.0002034656206973701
0.0001686188732384497
0.0001488822206742767
0.0001252404565129674
9.637345588723037e-05
6.543296774808344e-05
3.766758184103906e-05
1.800027055674308e-05
7.157212101064711e-06
2.397934519217952e-06
6.87732987658744e-07
1.81444164298015e-07
9.560906632150971e-08
3.438821203900705e-07
2.269447003009456e-06
1.818356923639108e-05
0.0001399924698806439
0.0005878692627520895
0.001566526565622466
0.003351400602404405
0.006262623417324749
0.01043397341498182
0.01047896631472007
0.001212701332159552
0.001116471222157435
0.001036429877492785
0.0009682211574610718
0.0009121404797615422
0.0008635050981997302
0.0007603267070642872
0.0005208752381379056
0.0003100174343104825
0.0002033342317025173
0.0001683346123614484
0.0001485287889330908
0.0001248479079076846
9.599773610602078e-05
6.512797806161452e-05
3.746644500678679e-05
1.789629820733294e-05
7.115151171692029e-06
2.38432762835757e-06
6.841832152496031e-07
1.809392880968375e-07
9.700018988807738e-08
3.529446486330552e-07
2.332843980660688e-06
1.866359599359287e-05
0.000142350790337069
0.0005924313607456801
0.001573418087910611
0.003362567322185333
0.006283507492813534
0.01046305841209733
0.01048855598692844
0.00132727694560493
0.001211253768305978
0.001115842589692098
0.001035487799322789
0.0009665139712265889
0.0009091977476331576
0.0008604953141635039
0.0007587943827270125
0.0005204061154960622
0.0003101673699387692
0.0002032007379769993
0.0001680482733328526
0.00014817258504293
0.0001244528837677379
9.562008818053302e-05
6.482171385075978e-05
3.726471311718606e-05
1.779213564286931e-05
7.073039661086625e-06
2.370706542454998e-06
6.806310543960159e-07
1.804433095987814e-07
9.844344887321435e-08
3.623209751570616e-07
2.398301758072219e-06
1.91548609764749e-05
0.0001447348366981698
0.0005970133534785806
0.00158034945193167
0.003373827533396735
0.006304832697608863
0.01049238443096526
0.01049851370807593
0.001451693193643064
0.00132462907772636
0.001209959275124068
0.001115299542504136
0.001034658419863263
0.0009648785643960632
0.0009067492477814022
0.0008583631744417697
0.000757212064770468
0.0005198789944896755
0.0003102906876796574
0.000203064804799404
0.0001677594613576779
0.0001478131434219948
0.0001240548986753877
9.524007364709769e-05
6.451384373680523e-05
3.706218311136292e-05
1.768768443067002e-05
7.030840064864294e-06
2.357059886508079e-06
6.770738268427747e-07
1.799562992044316e-07
9.994199587796519e-08
3.720290034793422e-07
2.465917588500323e-06
1.965780769647903e-05
0.0001471455855069692
0.000601616434026656
0.001587322452867277
0.003385188964975108
0.00632652244062855
0.01052196830275703
0.01050861766804861
0.001540084198660608
0.001448574234565019
0.001321996514864238
0.001208652418284168
0.001114624178417965
0.001033821065266465
0.0009633540928623967
0.0009048891378834057
0.0008569807905398458
0.0007555762305972448
0.0005192935884170266
0.0003103872697738077
0.0002029260426061296
0.0001674677613277558
0.0001474499868534849
0.0001236534642655215
9.485725675378681e-05
6.420404058236288e-05
3.685865574633509e-05
1.758284849499003e-05
6.988515890595083e-06
2.343376610496909e-06
6.735089445566776e-07
1.79478387795092e-07
1.014991941641881e-07
3.820876631156915e-07
2.535793432835361e-06
2.017289314123063e-05
0.000149583996508638
0.0006062417201654911
0.001594338760279304
0.003396648140497758
0.006348700444428905
0.0105518153300568
0.01051880890077473
1.484399868320236e-14
2.184675467516681e-12
4.083636405541343e-11
2.991718564892523e-10
1.339291365784406e-09
4.460218202597305e-09
1.220419875947254e-08
2.898743075029847e-08
6.172682052938297e-08
1.202105538294687e-07
2.169596765212596e-07
3.666124676740371e-07
5.852697579326984e-07
8.902161807507817e-07
1.299896301415549e-06
1.833731470534217e-06
2.511675394939787e-06
0.001540877013945194
0.001445383086518837
0.001319308171451814
0.001207261295889824
0.001113857057070232
0.001032936541796827
0.0009621163373018045
0.0009034913806294981
0.0008525297976655006
0.0007538757884810286
0.000518650207318683
0.0003104570728707192
0.0002027840942835435
0.0001671727677981518
0.000147082640930692
0.0001232480928151904
9.447120259030044e-05
6.389197925109508e-05
3.665393410436706e-05
1.747753339703721e-05
6.946031406422672e-06
2.329645916494015e-06
6.699338932280945e-07
1.790097661592955e-07
1.031186301784144e-07
3.925169632627775e-07
2.608036100245121e-06
2.070058755186492e-05
0.0001520510096352874
0.0006108902506609125
0.001601399864151794
0.003408211217494703
0.006371341604971941
0.0105819423299538
0.01052908303759147
1.498742822600232e-14
2.205774000403961e-12
4.123055059434734e-11
3.020589379365982e-10
1.352220514715308e-09
4.503344328399191e-09
1.232261674000946e-08
2.927039979289621e-08
6.233473018116119e-08
1.214080245507688e-07
2.191499461264322e-07
3.703669981384411e-07
5.913488852815997e-07
8.99578973228688e-07
1.313703747848331e-06
1.853364487940114e-06
2.538807870646235e-06
3.390545236444473e-06
0.001541577349708459
0.001442148790656577
0.001316604421773817
0.001205827402833764
0.001113051573435219
0.001032145077376648
0.0009616871727602139
0.0009003606558653286
0.0008493166130957639
0.0007521148909653973
0.0005179491773628001
0.0003105000159870866
0.0002026386159522111
0.0001668740787171954
0.0001467106297873306
0.0001228382956305175
9.408147666083691e-05
6.357733646759394e-05
3.644782362397465e-05
1.737164636697463e-05
6.903351643141749e-06
2.315857257427467e-06
6.663462327464077e-07
1.785506885440803e-07
1.048041291847056e-07
4.033380569425549e-07
2.682757431305517e-06
2.124137441675005e-05
0.0001545475424975237
0.0006155629807651614
0.001608507006931784
0.003419885256045795
0.006394410433070295
0.01061237386795141
0.01053941941572049
1.513331399878786e-14
2.227242934581112e-12
4.163184919136433e-11
3.050000230730506e-10
1.365404641404257e-09
4.547391375421437e-09
1.244387067911489e-08
2.956125665243021e-08
6.296295285021637e-08
1.226541068469413e-07
2.214476122023206e-07
3.743387278867647e-07
5.97827243130837e-07
9.096032622534178e-07
1.328483151667735e-06
1.874211587536114e-06
2.567063651005368e-06
3.427520540896958e-06
4.476260032270364e-06
0.001550596031389743
0.00154218366715356
0.001438905825654253
0.001313920643374843
0.001204369408123213
0.001112291039093813
0.001031650108138299
0.0009591569849745421
0.0008976469044983407
0.0008467527110194433
0.0007502935807612895
0.0005171903319743591
0.0003105158723578618
0.0002024892450979171
0.0001665712840365397
0.0001463334706218195
0.000122423580946457
9.368764492944385e-05
6.325979139624182e-05
3.624013253542163e-05
1.72650965225596e-05
6.860442460963009e-06
2.302000355882417e-06
6.62743602583776e-07
1.781014774775382e-07
1.065597720075262e-07
4.145733071023894e-07
2.760074472659084e-06
2.179575033971683e-05
0.0001570744874438908
0.0006202607764158783
0.001615661469334329
0.00343167710532469
0.00641781640703128
0.01064315546696757
0.01054978665805271
1.527248147195585e-14
2.247721127390576e-12
4.201461087683521e-11
3.078055928063735e-10
1.377987289878629e-09
4.589474098795913e-09
1.255994005408035e-08
2.984050284328348e-08
6.356853720565868e-08
1.238611974728184e-07
2.2368527714854e-07
3.782267099920105e-07
6.041969208523289e-07
9.1949152635472e-07
1.343091250497936e-06
1.8948349327125e-06
2.595015641809372e-06
3.46407648110752e-06
4.522631386807015e-06
5.791811595709483e-06
7.293061805409641e-06
9.050356402129041e-06
1.108955567863234e-05
1.343896530606971e-05
1.612984742357367e-05
1.919679604885587e-05
2.267808793617131e-05
2.661602708688937e-05
3.105729171460575e-05
3.605328844002648e-05
4.166051525762603e-05
4.7940931976972e-05
5.496233434922164e-05
6.27987256030564e-05
7.153067658120938e-05
8.124566248165253e-05
9.203836105923385e-05
0.0001040108930029257
0.0001172729805512862
0.0001319419951558224
0.0001481428585298308
0.0001660077548253493
0.0001856756032082679
0.0002072912321979086
0.0002310041876665107
0.0002569670970381702
0.0002853335038126693
0.0003162550779568186
0.0003498781026783958
0.0003863391354716861
0.0004257597449377783
0.0004682402357223085
0.0005138522953999769
0.0005626305322288239
0.0006145629258165441
0.0006695802839667609
0.000727544896200844
0.0007882386933603904
0.0008513513658636732
0.000916469051029398
0.0009830643641270374
0.001050488694038957
0.001117967784728406
0.001184601637439587
0.001249369648169168
0.001311141590569177
0.001368694539883111
0.001420735113907032
0.001465925580864679
0.00150291167572718
0.001530349774248548
0.001546931901764109
0.001551431799730976
0.001542692819321532
0.001435636834797287
0.001311249819615943
0.001202891905658713
0.00111137681436311
0.001030194009200953
0.0009571748992825531
0.0008952827879768873
0.0008448855725680681
0.0007484098809797479
0.0005163730852021147
0.0003105042772976861
0.000202335595979318
0.0001662639637643325
0.0001459506728322129
0.0001220034538805312
9.328927399438043e-05
6.293902581354198e-05
3.603067200136952e-05
1.715779489301381e-05
6.817270567569126e-06
2.288065209536648e-06
6.591237240257832e-07
1.776625281191025e-07
1.083899122504091e-07
4.262463529775954e-07
2.840109636104166e-06
2.236422474515227e-05
0.0001596327078501593
0.0006249844111319766
0.001622864440154886
0.003443577211570254
0.006441766899934237
0.01067433845853914
0.01056015459284868
1.540386725326167e-14
2.267054909092901e-12
4.237600948533829e-11
3.104551665594835e-10
1.389876959337177e-09
4.62928503461499e-09
1.266996761579944e-08
3.010605330433624e-08
6.414694874596903e-08
1.250203772258499e-07
2.258469630359879e-07
3.820046430141745e-07
6.104175730289324e-07
9.291849330041153e-07
1.357444437758965e-06
1.915115373851179e-06
2.622488540346297e-06
3.499940766876696e-06
4.567984496947433e-06
5.847633392042005e-06
7.360939359509458e-06
9.131560590676779e-06
1.118528032362429e-05
1.35504667921887e-05
1.625847808094378e-05
1.934403009806638e-05
2.284554569714291e-05
2.680549824290861e-05
3.127075828492222e-05
3.629294799048744e-05
4.192880461679559e-05
4.82405516314374e-05
5.529627348640438e-05
6.317028771387573e-05
7.194350512759722e-05
8.170376632477894e-05
9.254613870219488e-05
0.0001045731547984385
0.0001178949675026564
0.0001326293926223399
0.0001489018029170755
0.0001668448304910683
0.0001865978267465261
0.0002083060203169746
0.0002321193043442012
0.0002581905751885663
0.0002866735357488544
0.0003177198687358298
0.0003514756797414083
0.0003880771082214475
0.000427645007853639
0.0004702786096802703
0.0005160481034692122
0.0005649861096526114
0.0006170780663105384
0.0006722516322000173
0.0007303653023598048
0.000791196556151483
0.0008544300010136607
0.0009196461368625475
0.0009863115288581883
0.001053771324295244
0.001121245146653747
0.001187827409417106
0.001252492961652567
0.001314108664030618
0.001371450959156162
0.00142322875969045
0.001468110125785689
0.001504750459146308
0.001531819713540662
0.001548027009751459
0.001552167007567301
0.001543098330175696
0.001432275712732571
0.001308525775980599
0.001201311535237143
0.001110321173050561
0.001028848435123073
0.0009553947638162308
0.0008934086448619025
0.0008420145216153775
0.0007464560221218334
0.0005154963489135287
0.0003104647742691023
0.0002021772662222601
0.0001659516903263847
0.0001455617391329293
0.0001215774167897658
9.288593094887253e-05
6.261472398942303e-05
3.58192560523478e-05
1.70496544295258e-05
6.773803507346924e-06
2.274042087369789e-06
6.554844003323185e-07
1.772343124460033e-07
1.10299194345998e-07
4.383821779118351e-07
2.922990847828076e-06
2.294731946358285e-05
0.0001622230339841113
0.0006297345583558568
0.001630116760001712
0.003455591997626181
0.00646623234833985
0.01070600499789784
0.01057049844596927
1.553227454485907e-14
2.285951110876649e-12
4.272925985203776e-11
3.130456576898891e-10
1.401508441374037e-09
4.668277105786307e-09
1.277794600035414e-08
3.036743279054278e-08
6.471853819277781e-08
1.261713379284111e-07
2.280042865094229e-07
3.85793510097451e-07
6.166829579546177e-07
9.389814984823703e-07
1.37198843084209e-06
1.93570848233102e-06
2.650439874197742e-06
3.536513088318432e-06
4.614375312107288e-06
5.904985615719915e-06
7.430367379274289e-06
9.214181148383967e-06
1.128224737325157e-05
1.366300277799809e-05
1.638790159238953e-05
1.949178096272068e-05
2.301320834571537e-05
2.699482419960242e-05
3.148368844255985e-05
3.65316351251794e-05
4.219563645834298e-05
4.853817461407038e-05
5.562761721517378e-05
6.353858986003991e-05
7.235233662308965e-05
8.215705607064413e-05
9.304819735612011e-05
0.0001051286963642483
0.0001185091276622844
0.0001333077420736555
0.0001496503536647748
0.0001676700326051097
0.0001875065525748124
0.0002093055324274499
0.0002332172030704831
0.0002593947208234376
0.0002879919398723697
0.0003191605485954117
0.0003530464694835792
0.0003897854199724803
0.0004294975368564515
0.0004722809778688365
0.000518204438090479
0.0005672985553913625
0.0006195462352046941
0.0006748719993840748
0.0007331305647102966
0.0007940949801297926
0.0008574447976069952
0.0009227549144559387
0.000989485890639383
0.001056976688508655
0.001124440881779498
0.001190967381369315
0.00125552658914566
0.00131698256252013
0.001374111221140723
0.001425623866380448
0.001470194402074629
0.001506487874020531
0.001533187676803752
0.001549019662757165
0.001552797431389508
0.001541962976955872
0.001428765874755076
0.001305707227491844
0.001199617725056803
0.001109120955778988
0.001027519054624506
0.000954392176368791
0.0008911866862529702
0.0008382976284046714
0.0007444275188847353
0.0005145593894557079
0.0003103968251847881
0.0002020138380416908
0.0001656340296019672
0.0001451661655268019
0.0001211449691197589
9.247718317350713e-05
6.228657271840878e-05
3.560570159821338e-05
1.69405899588002e-05
6.730009656387019e-06
2.259921529015041e-06
6.51823517652708e-07
1.768173839140622e-07
1.122925728300763e-07
4.510071799188822e-07
3.008851692646482e-06
2.354556823808353e-05
0.0001648462585321891
0.0006345117866886749
0.001637419324029003
0.00346772641668883
0.006491112680743652
0.01073903889131669
0.01058079680884646
1.565604524236988e-14
2.304164705667177e-12
4.306976154121526e-11
3.155431777185915e-10
1.412729049714879e-09
4.705938215340489e-09
1.288246489022002e-08
3.062127802755311e-08
6.52761463090583e-08
1.273002175984467e-07
2.301324716164857e-07
3.895517918882538e-07
6.229266753595409e-07
9.487780259677016e-07
1.386564945418695e-06
1.95637205872967e-06
2.678497708655135e-06
3.573219031273657e-06
4.660912207032983e-06
5.962476892447386e-06
7.499905219202022e-06
9.296860475063978e-06
1.137919940012966e-05
1.377542560227032e-05
1.651708752827993e-05
1.963914123502181e-05
2.318029607005653e-05
2.718335646054598e-05
3.169556813089927e-05
3.676897302757834e-05
4.246077389025743e-05
4.883370672488078e-05
5.595641695448946e-05
6.390383247447319e-05
7.275752426290938e-05
8.260604212856006e-05
9.354520964642514e-05
0.0001056783583472444
0.0001191164762463002
0.0001339782405504744
0.0001503898975677898
0.0001684849461861375
0.0001884035726610286
0.0002102917762724646
0.0002343001157603719
0.0002605819975423223
0.0002892914174009838
0.0003205800601655567
0.0003545936563822458
0.000391467493688175
0.0004313209851771294
0.0004742512099953615
0.0005203253648629518
0.0005695721041622451
0.0006219718022823537
0.0006774458495813012
0.0007358451948709102
0.0007969384723858676
0.000860400201576578
0.0009257997095854964
0.0009925915937188572
0.001060108687337152
0.001127558584721922
0.001194024779982877
0.001258473327460229
0.001319765589799037
0.001376677070835214
0.001427921546345395
0.001472178797541492
0.001508123449821166
0.001534452104236349
0.001549907200311924
0.001553319416942021
0.001538699424562038
0.001425107336823027
0.001302819104826373
0.001197835040562465
0.001107828560545334
0.001026461017863263
0.000952499132422304
0.000888124705271185
0.0008351125960056995
0.0007423243454690044
0.0005135612443003571
0.0003102997895777665
0.0002018448749245586
0.0001653105397045783
0.00014476344146337
0.0001207056070494641
9.206259856611867e-05
6.195426139027954e-05
3.538982852197235e-05
1.683051827419529e-05
6.685858239467968e-06
2.245694348780476e-06
6.481390472572547e-07
1.764123827699133e-07
1.143753329408758e-07
4.641492444796556e-07
3.097831548733e-06
2.415951611639572e-05
0.000167503131734536
0.0006393165569381514
0.001644772751372915
0.003479969471406418
0.006516641851609484
0.01077256219823278
0.01059098291805762
1.577530968344723e-14
2.321715276608806e-12
4.339788880727836e-11
3.179505582584054e-10
1.423552069878597e-09
4.742315757591399e-09
1.298366645844061e-08
3.086796701080263e-08
6.582068727911667e-08
1.284090466115849e-07
2.322356621241685e-07
3.932872527605122e-07
6.29162094135697e-07
9.585957949593919e-07
1.401205604594715e-06
1.97715052782975e-06
2.706721801715054e-06
3.610136521991294e-06
4.707694847925577e-06
6.020233725899862e-06
7.56971193820204e-06
9.379793998978185e-06
1.147637156176551e-05
1.388801361423415e-05
1.664636103794378e-05
1.978648669927984e-05
2.334723934639636e-05
2.737158449323607e-05
3.190695039321432e-05
3.70055831889621e-05
4.272491200148364e-05
4.912792209388193e-05
5.62835316143376e-05
6.426696519878502e-05
7.316011468432108e-05
8.305187449396868e-05
9.403843554413216e-05
0.0001062235172742096
0.0001197185129763898
0.0001346425174129906
0.0001511221998956639
0.0001692914781947472
0.0001892909409532162
0.0002112669571987893
0.0002353704026310874
0.0002617549225615108
0.0002905746432122256
0.0003219812346993315
0.000356120224781171
0.0003931264608223769
0.0004331186226718027
0.0004761927022081564
0.0005224143906731499
0.0005718103536909557
0.0006243584319776469
0.0006799768851720447
0.0007385128988646606
0.0007997307036444272
0.0008632998046450254
0.0009287839861381143
0.0009956319222766564
0.001063170370424656
0.001130601014345439
0.001197002016466644
0.001261335183444714
0.001322459291422765
0.001379149532277384
0.001430122230557233
0.001474063047215479
0.001509656044083127
0.001535610632080867
0.001550687329488405
0.001553731464269368
0.00153525138631487
0.001421374810298666
0.001299906633325057
0.001196001413288814
0.001106463170437068
0.001024976585933807
0.0009504473274270263
0.0008853242850788155
0.000832562056846723
0.0007401454002495026
0.0005125006999759548
0.0003101729221231572
0.0002016699189592186
0.0001649807704867385
0.0001443530487799303
0.0001202588237982496
9.164174547030416e-05
6.161748226549326e-05
3.517145986037847e-05
1.671935816960741e-05
6.64131935496241e-06
2.231351643793234e-06
6.444290488078886e-07
1.760200418922906e-07
1.165531122910241e-07
4.778378187494445e-07
3.190075706167514e-06
2.478971868577446e-05
0.0001701943561466769
0.0006441492104329717
0.001652176776578509
0.003492333511555191
0.006542788361345607
0.01080629044681821
0.0106010198460603
1.589012053861926e-14
2.338610554773029e-12
4.371378611110822e-11
3.202688577379854e-10
1.433982290464957e-09
4.777426267798666e-09
1.308159996448379e-08
3.110763571929407e-08
6.635251911334802e-08
1.294987187275578e-07
2.343159248578635e-07
3.97004225404586e-07
6.353973823915356e-07
9.68448707477894e-07
1.415932039088762e-06
1.998075148133581e-06
2.735154774074105e-06
3.647321122977519e-06
4.754793217483436e-06
6.078341934436081e-06
7.63989057362498e-06
9.46310337346286e-06
1.157390558196803e-05
1.400093016208967e-05
1.677590880758651e-05
1.993402924618978e-05
2.351427736362726e-05
2.755977713201525e-05
3.211813633588152e-05
3.724180191776667e-05
4.298842560486623e-05
4.942123768055771e-05
5.660942440271631e-05
6.462850199328458e-05
7.356067754470669e-05
8.349518400387549e-05
9.452857293646082e-05
0.0001067649445305151
0.000120316089520852
0.0001353015118971526
0.0001518482949901311
0.0001700907658816751
0.0001901699054173441
0.0002122324416545234
0.0002364295558275292
0.0002629151203884354
0.0002918433795580026
0.000323365976070554
0.0003576282218739648
0.0003947645110014329
0.0004348927769509836
0.0004781079118481812
0.0005244740897210235
0.0005740159770402206
0.0006267088727850888
0.0006824679007230469
0.0007411364828326502
0.0008024744513783803
0.0008661463105651844
0.0009317103255562173
0.0009986092837216138
0.001066163917994473
0.001133570070108706
0.001199900657428835
0.001264113340760077
0.00132506442119117
0.001381528883611141
0.00143222566902687
0.001475846273654006
0.001511083835019121
0.001536659218745373
0.001551358545645975
0.001554033095396518
0.001531763756044179
0.001417589593430577
0.001296996449026411
0.001194119622884514
0.001105012822264105
0.001023342096948234
0.0009482449042506286
0.0008827694905956727
0.0008291964528785193
0.0007378850780250592
0.0005113762481645598
0.0003100153874652527
0.0002014884903732786
0.000164644262824576
0.0001439344622281781
0.0001198041092587592
9.121419309412471e-05
6.127593071567354e-05
3.495042198810515e-05
1.66070305777484e-05
6.596364008207001e-06
2.216884803014896e-06
6.406916739508945e-07
1.756411930978714e-07
1.188319237365136e-07
4.921039865940683e-07
3.285735466522486e-06
2.543674115779834e-05
0.0001729205806395216
0.0006490099572881537
0.001659630973041705
0.003504829822141611
0.006569505186274804
0.01084017667616382
0.01061087288196937
1.600059543574425e-14
2.35486786509892e-12
4.40177783055746e-11
3.225004826348406e-10
1.444030801469731e-09
4.811308768580345e-09
1.317638189832891e-08
3.134059622970654e-08
6.687241155883279e-08
1.305709917850738e-07
2.363769591429969e-07
4.007098330165761e-07
6.416450499357221e-07
9.783568823483797e-07
1.430774172847831e-06
2.019187627873091e-06
2.763851841659156e-06
3.684843093685102e-06
4.802294055968214e-06
6.136906150258372e-06
7.710565087174933e-06
9.546933386533572e-06
1.167196865757028e-05
1.411436654769767e-05
1.690594804936248e-05
2.008201397450829e-05
2.368168522142848e-05
2.774824176496644e-05
3.23294680890358e-05
3.747800874827256e-05
4.325173447180871e-05
4.971411654621299e-05
5.69346048685917e-05
6.498900233029492e-05
7.395982585260371e-05
8.393664094479495e-05
9.501635330490385e-05
0.000107303436794136
0.0001209100718649214
0.0001359561633966579
0.0001525691996717478
0.0001708839074120401
0.0001910416491893817
0.0002131895009014989
0.0002374789374921395
0.000264064045798008
0.0002930991748333373
0.0003247359258038082
0.0003591193803163481
0.0003963834639738758
0.0004366453485996147
0.0004799988111622182
0.0005265064935666605
0.0005761910491830035
0.0006290252228404738
0.0006849209932262815
0.0007437180133384244
0.00080517171796773
0.0008689416194165208
0.0009345804836120429
0.001001525244409209
0.001069090660435556
0.001136466800298081
0.001202721424738586
0.001266808156662478
0.001327580943639823
0.001383814691506214
0.001434231083184885
0.001477527594763419
0.001512406802325411
0.001537602706883683
0.001551920404931425
0.00155422344769129
0.001528149267878273
0.001413708730092827
0.001294067434250449
0.001192170888422496
0.001103445747853991
0.001021572777388355
0.0009458799677084881
0.0008798785243408097
0.0008262366985741587
0.0007355444077302932
0.0005101866356280317
0.0003098262690375925
0.0002013000871942079
0.0001643005489427627
0.000143507148884379
0.0001193409505465753
9.077951165924359e-05
6.09293055878484e-05
3.472654487235528e-05
1.649345863496076e-05
6.550964148230164e-06
2.202285518736525e-06
6.369251706731713e-07
1.752767739421192e-07
1.212181793268281e-07
5.069805438624837e-07
3.384968217950395e-06
2.610115726084426e-05
0.0001756823942477151
0.0006538988715232287
0.001667134269276205
0.003517480933980566
0.006596747491836199
0.01087415117304113
0.0106205044564457
1.610669920935183e-14
2.370482009024745e-12
4.430976820418501e-11
3.246447358467329e-10
1.453694671190811e-09
4.843954955106357e-09
1.326799725395778e-08
3.156684395375207e-08
6.738045555337848e-08
1.316263121286677e-07
2.384201585816991e-07
4.044074733113358e-07
6.479120070379714e-07
9.883324900713031e-07
1.445751134818806e-06
2.040515501573456e-06
2.792850103080135e-06
3.722750039491818e-06
4.850256273330938e-06
6.195997326082392e-06
7.781819182637796e-06
9.631381200344655e-06
1.177067215161633e-05
1.422844911807435e-05
1.703662096119476e-05
2.023059986153091e-05
2.384963973003347e-05
2.793717419589931e-05
3.254116176868403e-05
3.77144415587711e-05
4.351509985785393e-05
5.000684514948205e-05
5.725938667953954e-05
6.534880931699719e-05
7.43579345967198e-05
8.43766548582817e-05
9.550222370172539e-05
0.0001078394817253411
0.0001215009916654494
0.0001366070510758779
0.0001532855443111629
0.000171671588052153
0.0001919069161534578
0.000214138940985554
0.000238519418911117
0.0002652026380594592
0.0002943430378951865
0.0003260921630112902
0.0003605948484988823
0.0003979845343975672
0.0004383776131054368
0.0004818667280935937
0.0005285129706222193
0.0005783369630843792
0.00063130887973681
0.0006873375399663593
0.0007462588182351622
0.0008078237480592554
0.0008716868551833594
0.0009373954227708301
0.00100438056318765
0.001071951110284243
0.001139291430075703
0.001205464220429788
0.001269419182373453
0.001330008047668436
0.001386005798847459
0.001436137036501212
0.001479105430237997
0.001513623271103356
0.001538437739194208
0.001552370632369105
0.00155430070815975
0.001524374857130772
0.001409720180084072
0.001291092863906794
0.001190137375169681
0.001101756440255694
0.001019665685690942
0.000943425261965753
0.0008789924092369749
0.0008259416357441554
0.0007331264215042731
0.0005089301544537949
0.0003096045712288983
0.0002011041849227394
0.0001639491519845674
0.0001430705687546003
0.0001188688322559551
9.033727295815846e-05
6.057730966314932e-05
3.449966232260402e-05
1.6378567819702e-05
6.505092712375998e-06
2.187545800153388e-06
6.331278882336076e-07
1.749278350702278e-07
1.237187153543722e-07
5.225020735251851e-07
3.487937480441484e-06
2.678354794611321e-05
0.0001784803191114031
0.0006588158617462268
0.001674684539103395
0.003530344123059898
0.006624464616337265
0.01090731006235653
0.01062987826860058
1.62084010685597e-14
2.385448464998707e-12
4.458967222218647e-11
3.267010311280601e-10
1.462971588519043e-09
4.875359258547581e-09
1.335644106427071e-08
3.178640587390972e-08
6.787682850512679e-08
1.326653314116739e-07
2.40447346239508e-07
4.081013382556761e-07
6.542064641815829e-07
9.983896084634279e-07
1.460884589249544e-06
2.062089408026053e-06
2.822190216755934e-06
3.76109342633564e-06
4.898742809960861e-06
6.255690471087608e-06
7.853740525611627e-06
9.716547747146056e-06
1.187013089199264e-05
1.434330728066815e-05
1.716807225045029e-05
2.037994771486162e-05
2.401831864618274e-05
2.812677007008685e-05
3.275343190664419e-05
3.795133486053289e-05
4.377877745578686e-05
5.029970160652209e-05
5.758407176726385e-05
6.570825014018206e-05
7.475535776926591e-05
8.481560819494094e-05
9.598659668200476e-05
0.0001083735238036553
0.0001220893270576819
0.0001372546884802089
0.0001539978795945128
0.0001724543971905795
0.0001927663356728696
0.0002150814322775621
0.0002395517119974466
0.0002663316503076607
0.0002955757621300056
0.0003274355190891538
0.00036205549206806
0.0003995686168304857
0.0004400904862263822
0.0004837125894269663
0.0005304944457638141
0.0005804546253449131
0.0006335607117247901
0.0006897183473964165
0.0007487596145408028
0.0008104311385138815
0.0008743824602765078
0.0009401553951802134
0.001007175264525943
0.001074745027862666
0.001142043422620451
0.001208128182810457
0.001271945213623634
0.001332344182573768
0.001388100322825938
0.001437941343176818
0.001480577296744906
0.00151473031086485
0.001539160605218194
0.001552706373503547
0.001554262300603629
0.001520436784959373
0.001405628029190806
0.001288058789163479
0.001188015688631463
0.001099957649889565
0.001017661300808701
0.00094164369578797
0.0008761249835773332
0.0008202687813744445
0.0007306064056515243
0.0005076048275431809
0.0003093492371024969
0.0002009002358066823
0.0001635895861818317
0.000142624174865814
0.0001183872364861688
8.98870509232423e-05
6.021965013189716e-05
3.426961235564093e-05
1.626228615282586e-05
6.458723685580803e-06
2.172657989882103e-06
6.292982829625075e-07
1.745955481289162e-07
1.263408184793389e-07
5.387050195168856e-07
3.594812919037487e-06
2.74844998646388e-05