/*--------------------------------*- C++ -*----------------------------------*\
| =========                 |                                                 |
| \\      /  F ield         | OpenFOAM: The Open Source CFD Toolbox           |
|  \\    /   O peration     | Version:  v1812                                 |
|   \\  /    A nd           | Web:      www.OpenFOAM.com                      |
|    \\/     M anipulation  |                                                 |
\*---------------------------------------------------------------------------*/
FoamFile
{
    version     2.0;
    format      ascii;
    class       volScalarField;
    location    "1792";
    object      omega;
}
// * * * * * * * * * * * * * * * * * * * * * * * * * * * * * * * * * * * * * //

dimensions      [0 0 -1 0 0 0 0];


internalField   nonuniform List<scalar> 
10965
(
36.32590855545659
31.42748209541067
23.10929603746855
14.85908662539123
9.806494656588237
6.892598589670272
5.021191144759343
3.785894991000637
2.969664190067981
2.440042124812232
2.116274209841237
1.927965860179281
1.81613530607581
1.743248069722822
1.68989202218828
1.647772215866906
1.613469271278861
1.588151748513759
1.597498372625878
1.905826469113008
3.452141651231685
6.292987728652033
9.569066341113455
13.27301608960191
19.01093111221442
39.27090946880674
38.51104067432547
39.21684651411062
39.21293493725174
38.3467327278213
36.08288609671499
31.18919175310193
22.95248038899239
14.76876394406739
9.747781716862118
6.856052210758367
4.999046853674001
3.772547924352042
2.961740669114051
2.435471727991442
2.113640553251762
1.926338094056036
1.814989518489148
1.742333219076436
1.689098128427017
1.647051111272946
1.612802914595517
1.587616486340239
1.597879520650827
1.910659685132195
3.464654086791803
6.306595277430627
9.575982662261397
13.26692547201969
18.99733761323327
39.25809850961672
37.14554044734323
38.48319990369806
39.13401837821988
39.07410389009986
38.15025037333404
35.83733930056111
30.94631035803771
22.78982504628036
14.67528610699779
9.687580175303502
6.818610498996743
4.976349680899437
3.758865008308644
2.95361641996519
2.430788503026592
2.110946320629246
1.924676296257745
1.813822223616342
1.741402983313363
1.68829234525178
1.646320461600119
1.612129510578386
1.587082426315795
1.598308254795
1.915686486719772
3.477437950375031
6.320370127743667
9.582913884572898
13.26086081568646
18.98390253208999
39.24546933310079
35.25511923302611
37.17060229081398
38.45236503877759
39.05015776529464
38.93530164861902
37.95384769248567
35.59283343661853
30.70465389944924
22.62687129272059
14.58176712623238
9.627523436669597
6.781224503318789
4.953667288013048
3.745185199224137
2.945490060320152
2.426101582279458
2.108248051284871
1.923010061460641
1.812650233859817
1.74046798994574
1.687481831012494
1.645585172604665
1.61145196922526
1.586547836042053
1.598753177343813
1.920783333695782
3.490322848287367
6.334167388814103
9.589748591421818
13.25495148471318
18.97042767101212
39.23299576651922
33.11839623906726
35.32746159422287
37.19281431202087
38.42156894004603
38.96567461276761
38.79599520878401
37.75742615217204
35.34947324690853
30.46438822072575
22.46378072703338
14.48823654725746
9.567598899296836
6.743878619575902
4.930987123174734
3.731498977242795
2.937354929898709
2.421406643326576
2.105543032267516
1.921337634112685
1.811472302304429
1.739527268289327
1.686665780495898
1.644844560467167
1.610769717298562
1.586012358423367
1.599214693460981
1.925952202081343
3.503306196217175
6.347971518890366
9.59643095829718
13.24880557948089
18.95687653766512
39.22062751570125
31.11769525171207
33.22098215734179
35.39632960256749
37.21271457486522
38.38919086586132
38.87987106472912
38.65557994267298
37.56041061729837
35.10685018066552
30.22513673850495
22.30037562837027
14.39457758054769
9.507732835516139
6.706529143179682
4.908283427396412
3.717791129212971
2.929202256813051
2.416698789488639
2.102828497346013
1.919657317663831
1.810287248976519
1.73857990204266
1.685843432312282
1.644097973218706
1.610082208214386
1.585475661607752
1.599693282438747
1.931196187231365
3.516392775200856
6.361784441837736
9.602986022031377
13.24261664506369
18.94321488123114
39.20832647147638
29.43489040949035
31.22965436048193
33.31990418407341
35.4615129417987
37.23076306745522
38.35473095356397
38.79210759400181
38.51347445444942
37.36242333818305
34.8646188542963
29.98652272365843
22.13647272197716
14.30067321168555
9.44785293002175
6.66913328578806
4.885531005416066
3.704046812808836
2.921023492339019
2.411973247309076
2.100101747075794
1.917967453526278
1.809093916530828
1.737624988723749
1.685014034385984
1.643344764369923
1.609388900638441
1.584937423663807
1.600189450996516
1.936518426847618
3.529587284353701
6.375607685110349
9.609379660968369
13.2361543909814
18.92945855906831
39.19606269197702
1165102.28866536
215568.9149809729
75378.16311172822
36090.47117714064
20588.0028868193
13094.26872311086
8964.126414816106
6470.5754694115
4858.972811931212
3758.532047414684
2971.10235547797
2384.955523298957
1935.213841189186
1583.245477922147
1304.88079931929
1083.687207653701
907.4685519581582
29.54657666893776
31.33878331846778
33.41544189350299
35.52354780464057
37.2455593700578
38.31730394270787
38.7016952564118
38.36948572390214
37.16356654868257
34.6223436951876
29.74823489019995
21.97190211172594
14.20641149494382
9.387889692485942
6.631649663838209
4.862705323111137
3.690251503386378
2.912810226940444
2.407225290375217
2.097360087926798
1.916266369805145
1.8078911287794
1.736661606767948
1.684176817194276
1.64258427259503
1.608689242171585
1.584397321275998
1.600703724125554
1.941922094531916
3.542894335906428
6.38944279987512
9.615624243983909
13.22929679903658
18.91557767528888
39.18380754350709
1165102.275964464
215568.8643173398
75378.03475758419
36090.20989060772
20587.54047829474
13093.52823899237
8963.028311267342
6469.047600326779
4856.966774392406
3756.04637713477
2968.205922427023
2381.794910475832
1931.988650627065
1580.154822450026
1302.06712783589
1081.204986130305
905.2864295580885
764.6811080384767
29.65600506400778
31.44522270137238
33.50777852827317
35.58260872021022
37.25655754170241
38.27616714404666
38.60832975738491
38.22393850948862
36.96348424836096
34.37975177564368
29.50997651757716
21.80650173302922
14.11168483160886
9.32777617638231
6.594038176891694
4.839782459383293
3.676390967516184
2.904554186945146
2.402450244411962
2.094600836328244
1.914552385160547
1.806677693863213
1.735688818080247
1.683330995694245
1.641815823272565
1.60798267042711
1.583855030740099
1.60123664596226
1.947410400616115
3.556318447977786
6.403290236154509
9.621727475027761
13.22214463871263
18.90153687594369
39.17153606414877
1165102.269942331
215568.8166899875
75377.90239832202
36089.92599207661
20587.02139042124
13092.67927529286
8961.751090663325
6467.251676452681
4854.588284935231
3753.074381442744
2964.709867916004
2377.936445970556
1928.000298769383
1576.286979861816
1298.528963709105
1078.127964420675
902.7203044796569
762.612708453134
650.0986443352751
28.27671000393806
29.76331160891518
31.5491053951384
33.59696017059038
35.63861742957001
37.26344962018717
38.23124894325417
38.51398080173318
38.0764153600601
36.76174908363507
34.13652393576739
29.27145411705648
21.64011127949901
14.0163882181414
9.267447459023462
6.556259800438498
4.816739061343256
3.662451272288931
2.89624725136231
2.397643508309916
2.091821334657134
1.912823824741536
1.805452416514909
1.734705677812922
1.682475777097946
1.641038734350418
1.607268617626557
1.583310231259504
1.601788782340197
1.952986593387991
3.569864038081269
6.417150142753959
9.627706179803443
13.21522145339316
18.88726934623065
39.15923121707296
1165102.269112787
215568.7568576847
75377.73513627291
36089.57533027916
20586.39794464126
13091.68657916139
8960.293465070659
6465.246142366389
4851.982919149332
3749.873347406069
2960.998369567479
2373.889379841085
1923.858347728969
1572.302706812071
1294.908679699191
1074.997322466697
900.1223418566935
760.5278738664981
648.4713641772706
557.8543056734479
483.9787973630255
423.1548611365187
372.5880143889414
330.15050754478
294.2134300895584
263.523174157112
237.1082262544663
214.2095934675097
194.2291656826419
176.6914181263382
161.2149335441106
147.4911242780181
135.2682348158983
124.3392290848456
114.5325496251313
105.7050131068423
97.73630556521316
90.52468439622055
83.98359741693625
78.03900399800592
72.62723781494653
67.69329034402459
63.18942378883468
59.07404359459564
55.31077707663764
51.8677168542614
48.71679692461358
45.83327637106755
43.19531099935222
40.78359744479683
38.58107752824451
36.57269322813846
34.7451846817068
33.08692527729767
31.587789216416
30.23904809280094
29.03329391158461
27.96438680577705
27.02742637856699
26.21874622628302
25.53593170872232
24.97786151917623
24.54477401092806
24.2383595777345
24.06188066220956
24.02032113864175
24.12056672594295
24.37161731073657
24.78482925726351
25.37417761817624
26.15650702990602
27.15168678570603
28.38110162937909
29.86862447970614
31.65063156090185
33.68344048148616
35.69050958150913
37.26746995409466
38.18606458337914
38.41729865377764
37.92643571758064
36.55795199938119
33.89234684557693
29.03238105872271
21.47257261607467
13.92041898537267
9.206840529514107
6.518276556097479
4.793552320949563
3.648418779788633
2.887881456888185
2.392800556425203
2.089018959141505
1.911079021805834
1.804214099902101
1.733711235667113
1.681610361815352
1.640252316896764
1.606546511022046
1.582762605156433
1.602360720779805
1.958653957527971
3.583535418337204
6.431022713474674
9.633503201256875
13.20806790388782
18.8727498525764
39.14688812974873
1165102.272642283
215568.6912198093
75377.54786298964
36089.18257447451
20585.70361703807
13090.59029344375
8958.69932437685
6463.075388367997
4849.1925051873
3746.480089380463
2957.101678552911
2369.676875509091
1919.579294496325
1568.213037254989
1291.213647664466
1071.819064839557
897.4999831764114
758.4389597986944
646.8586561899766
556.6479300434984
483.0659625005347
422.4727690327585
372.0893086005615
329.7957256294735
293.9704597042229
263.3663421087249
237.0172267129122
214.1684712192706
194.2254360889724
176.7153403870379
161.2589262940602
147.5493024172716
135.3360453802217
124.4131659306946
114.6099303340593
105.7838041766396
97.81498541780374
90.60213564967317
84.05902201109986
78.11185615365333
72.69717089233336
67.76011470829705
63.2530732768677
59.13454883868665
55.36824429010739
51.92231096132746
48.76872821815938
45.88279001026417
43.24267884189143
40.82911178906206
38.62504646158989
36.61543732657294
34.78703486597861
33.1282216479994
31.62888078641469
30.28029327165127
29.0750616636611
28.00705836611453
27.07139740405155
26.26442918320409
25.58375822839218
25.02828429093227
24.59826755346085
24.29541887259887
24.12301610915532
24.08604748795304
24.1913824970369
24.44796954755719
24.86705619057635
25.46241889925043
26.2505680520056
27.2508381280887
28.48382069082943
29.97213097688879
31.74997649008638
33.76699349754993
35.73941645130692
37.2688430726759
38.13777825743175
38.3174145094271
37.7735695557991
36.35194616286213
33.64690313709102
28.79246813524944
21.30373233041168
13.82367725259993
9.145894397238338
6.480051565501023
4.770199986895088
3.634280149747354
2.879448991692378
2.387916932581199
2.086191107783185
1.909316312691024
1.802961540885195
1.732704531981846
1.680733940191775
1.639455872434534
1.605815770768772
1.582211836256913
1.602953068935836
1.964415811218303
3.59733678509658
6.444907618778138
9.639128524034602
13.20043282610501
18.85791395696172
39.13452477664526
1165102.280217489
215568.6170666538
75377.33474505022
36088.73849851173
20584.92640752767
13089.37618379376
8956.952480159158
6460.721013771536
4846.195477819369
3742.868419922049
2952.987514202208
2365.259534833011
1915.116120332181
1563.962864777778
1287.379602090854
1068.51769498153
894.7633750041261
756.2376835181326
645.1292575032084
555.3148502943106
482.0552854322363
421.7189632771625
371.5372762064106
329.4006289444058
293.6965330351161
263.1853942685452
236.9071905414689
214.1121406429725
194.2094245914286
176.729247405712
161.2946809709111
147.6006515980625
135.3981557218857
124.4823152296538
114.6832675933548
105.8591630457357
97.8907384458568
90.67708030312258
84.13229108759053
78.18284721176271
72.76549049542595
67.82553424764248
63.31549389464124
59.19397356396239
55.42475587391924
51.97605428013363
48.81989634696831
45.93161326563933
43.28941622746422
40.8740444561111
38.6684728062917
36.65766948427358
34.82839638077029
33.16904618227866
31.66951169509982
30.32108396615407
29.11637664172576
28.04927479719792
27.11490713229972
26.30964095817222
25.63109986255204
25.07820432133394
24.6512357210854
24.35192439471312
24.18356217117467
24.15113959486861
24.26150716970957
24.52355820506497
24.94842677968065
25.54968471805132
26.34349856260017
27.34864057550551
28.58489432577671
30.07401379221728
31.84737300848009
33.84777997253459
35.78521943710538
37.26738796592841
38.08562056543587
38.21349995433125
37.61777396627429
36.14359552950964
33.39987728286685
28.55146996792984
21.13344257599887
13.72606617339356
9.084550154791977
6.44154909428743
4.746660388904528
3.620022339685946
2.87094218969314
2.382988243531384
2.083335200692294
1.907534031611913
1.801693526164103
1.731684594495572
1.679845689748456
1.638648690676429
1.605075808096657
1.581657608488452
1.603566453130382
1.970275503071446
3.611272217783488
6.458804831023501
9.64460983994471
13.19285371665583
18.8406797282203
39.12226870071554
1165102.291297735
215568.5347603691
75377.09708481205
36088.24554426133
20584.06925073491
13088.04712046865
8955.055244217045
6458.184617354093
4842.993107928794
3739.04022153806
2948.659701150586
2360.644611653322
1910.480944600939
1559.570552684748
1283.432580161363
1065.128520436739
891.9589086395506
753.9835616991292
643.3580943358589
553.9482656327748
481.0173362352206
420.9425839485136
370.9662950059362
328.9894579034119
293.4088655404499
262.9926356543168
236.7869624462104
214.0469900431029
194.185764507507
176.7365115613348
161.3246596265004
147.6469739902906
135.4558882026377
124.5476494222772
114.7532782641613
105.9316195312429
97.96395751973579
90.74981086158503
84.20362358778496
78.25214222310731
72.8323222328154
67.889645757393
63.37676147726913
59.25237843720602
55.48036163697644
52.02898898084134
48.87033827208247
45.97977972486508
43.33555480259983
40.91842625189619
38.71138739242105
36.69942123543726
34.86930202381923
33.20943336546116
31.70971846106966
30.36145899704693
29.15728016913896
28.09108007527552
27.1580023058448
26.35443113622842
25.67800910919042
25.12767709650841
24.70373709742563
24.40793799626102
24.24358424686615
24.21566684786276
24.33101481403036
24.59846307861912
25.02902800566475
25.63607090753635
26.43540406388297
27.44518073470839
28.68436585382895
30.17427124047011
31.94291487121459
33.92583933798768
35.82790561141128
37.26283241202092
38.02876350433564
38.10661420984938
37.45905314819462
35.93255463252247
33.15100855539936
28.3091426548565
20.96156026983448
13.62749193851288
9.022751000934207
6.402734534961482
4.722912442836129
3.605632601472933
2.862353531982987
2.378010159539405
2.080448672880406
1.905730509645849
1.80040883066728
1.730650436824742
1.678944773813728
1.637830048308945
1.604326024303064
1.581099605041172
1.604201517186999
1.976236408801468
3.625345657591034
6.472713962310554
9.649896523673005
13.18494883371522
18.82256088692024
39.1098461575266
1165102.306498797
215568.4432797836
75376.83269509823
36087.69963394025
20583.12626606678
13086.59552804635
8952.998651265565
6455.45624337887
4839.574885834229
3734.984885700828
2944.107977881113
2355.822575020867
1905.665262505843
1555.028782227987
1279.366470768341
1061.646550048394
889.0825610528391
751.6733504009296
641.5424865852448
552.5458163104546
479.949938111643
420.1416650253729
370.3746265952228
328.5606936967473
293.1061387338995
262.7869247046572
236.6555546192081
213.9721641083492
194.153714171448
176.7364885620856
161.3483015208509
147.6877807039757
135.5088158938106
124.6087952884875
114.8196357887975
106.000887887763
98.03439266571181
90.82010891928964
84.27282905190972
78.31957560864362
72.89752274258929
67.95232581938112
63.43677055273147
59.3096742099227
55.53498702836981
52.08105387199496
48.92000495980391
46.02725144561185
43.3810667389279
40.96223858577725
38.75378005558058
36.74069010261242
34.90975631056149
33.24939407236818
31.74951772381721
30.40144021593201
29.19779881480574
28.1325050303726
27.20071761075276
26.39883792002933
25.72452739974146
25.17674705441213
24.75581896805404
24.46350971932014
24.30313511641227
24.27968483769506
24.39996404910958
24.67274635568276
25.10892712238071
25.72165465998301
26.52638953038701
27.54053772227732
28.78237660627184
30.2728346101667
32.03644406383016
34.00110745982552
35.86736415039382
37.25485019174508
37.96928210344863
37.99664579835706
37.29702598061114
35.71847453538587
32.90003748681688
28.06525055461061
20.78794707730376
13.5278638415527
8.960442230270028
6.363574460690106
4.698935649764431
3.591098492963109
2.853675648201088
2.37297841364589
2.077528979748122
1.903904073120847
1.799106216473155
1.7296010573895
1.678030340474373
1.636999208021297
1.60356580992788
1.5805375076
1.604858921131262
1.982301927466956
3.639560894609129
6.486632189026795
9.654985797995973
13.17648971546792
18.80444715809531
39.09726135284093
1165102.323582139
215568.3429226277
75376.54204487658
36087.1014582833
20582.09800316178
13085.02140446671
8950.781712886135
6452.533586947278
4835.937048679179
3730.697284279633
2939.326178319606
2350.786716389756
1900.662341745356
1550.331218026061
1275.175591164052
1058.066860465779
886.130173191974
749.3036041617336
639.6796235640619
551.1052379117048
478.851285571334
419.3147792380105
369.7611508448525
328.1134629199894
292.7876756144686
262.5677401127668
236.5125684921743
213.887360610374
194.1130466860329
176.7290101916766
161.3654838480722
147.7229839328857
135.5568776772884
124.6657119115592
114.8823143769326
106.0669534337339
98.10203727170352
90.88797353760779
84.33991046004596
78.38515292225264
72.96109920716869
68.01358257589372
63.49552980232239
59.36586984425635
55.58864120215299
52.13225829153638
48.96890602684712
46.07403846529359
43.42596268070592
41.00549290905552
38.79566327778549
36.78148981069269
34.94977441360757
33.28894511135304
31.78892809039147
30.44104816960381
29.23795516146601
28.17357434947729
27.24307986664847
26.44289024067416
25.77068571115087
25.22544709648589
24.80751597370208
24.51867567337749
24.36225197727579
24.34323132488376
24.46839255928138
24.74644530128149
25.18816315639117
25.8064920056964
26.616604807382
27.63472153604319
28.87896440193391
30.36969371928219
32.12784725415329
34.07349774952974
35.90348386009413
37.24341014044204
37.90677387621718
37.88337696792087
37.13138493631234
35.50122177375355
32.64667317967219
27.81955859970331
20.61247034231687
13.42709446149715
8.897571320413352
6.324036627492919
4.674710133465775
3.576407880672727
2.84490132210815
2.367888803835492
2.074573590188656
1.902053042842131
1.797784431230356
1.728535437896024
1.677101521173912
1.636155417242568
1.602794543695041
1.57997099535628
1.605539339568894
1.988475476483278
3.653921550557567
6.500557697644374
9.659877804164108
13.16763698919898
18.78635152099273
39.08450272933616
1165102.343385899
215568.2329194355
75376.22328071008
36086.44778011455
20580.97952143544
13083.31802908387
8948.396003474149
6449.40672343179
4832.068532927268
3726.165724125118
2934.302576576282
2345.525871742965
1895.462062137369
1545.469058449843
1270.852517087096
1054.383309866275
883.0967201580836
746.8702357047173
637.7661897579263
549.6238427523152
477.7191976955798
418.4601528240806
369.1244204068294
327.6465797985381
292.4525005850151
262.3342753630033
236.3573342354676
213.7920206570331
194.0632936569527
176.7136821478236
161.3758733184449
147.7523008136128
135.5998326488659
124.7181933987529
114.9411374973863
106.129664416252
98.1667605728598
90.95329183780282
84.40477023868699
78.44878977137648
73.02297866061426
68.07335301519046
63.55298495123949
59.42091879912279
55.64128448560927
52.18256874396823
49.01701354731509
46.1201179374482
43.47022443887555
41.0481753384777
38.83702717284986
36.82181420952131
34.98935368551729
33.32808712232006
31.82795329375408
30.48028948435049
29.27775853501486
28.21429984917154
27.28510315075528
26.48660417480606
25.81650181125679
25.27379629759855
24.85884799733537
24.5734558738894
24.42095399994897
24.40632311964552
24.53631216037167
24.81956122654142
25.26671189586492
25.89047939023673
26.70563201747853
27.72764822847232
28.97411234850437
30.4648367286246
32.21704843402066
34.14292821565629
35.93616745747155
37.2284262729011
37.84099942334458
37.76654011062395
36.9618039601848
35.28041301389119
32.39069199644729
27.57186150488388
20.43500378330885
13.32509993063443
8.834087987752278
6.284090058932277
4.650216645417848
3.561548959878778
2.8360234936866
2.362737192643515
2.071579989615708
1.900175731745297
1.796442206320694
1.727452541597179
1.67615742908916
1.635297906694718
1.60201159129674
1.579399743840767
1.606243459681565
1.994760486551941
3.668431079414573
6.514489178653124
9.664593203147929
13.15855661479927
18.76828120977441
39.07154777956483
1165102.364713806
215568.1129653078
75375.87587159706
36085.7373064445
20579.76854872367
13081.48184852458
8945.836481397298
6446.069094972096
4827.961450081596
3721.3813772469
2929.02797296406
2340.031081835993
1890.05620740627
1540.435125841744
1266.391186723319
1050.590883358153
879.9781013723846
744.3699150345103
635.7994950120969
548.0994657922838
476.5519373029032
417.5763950916706
368.4633235993532
327.1591567107344
292.0999053759727
262.0859658262555
236.1894020167206
213.6857861991205
194.0041702908102
176.6902781381413
161.3792903026789
147.7755888169318
135.6375677342384
124.7661499669261
114.9960337244743
106.1889638052195
98.228516726124
91.01602666081175
84.46737788438965
78.510460739324
73.0831395311254
68.13161847689983
63.60911953244273
59.4748062774076
55.69290340219094
52.23197281596498
49.0643160525423
46.16547927073548
43.51384230255697
41.09027709330904
38.87786396645014
36.86165662378379
35.02848865365239
33.36681593205479
31.86659053226371
30.51916278840635
29.31720900407835
28.25468300465083
27.32679024357264
26.52998363089586
25.86198044926176
25.32179983227307
24.9098200474765
24.62785432130623
24.47924297345253
24.46895802183819
24.60371393543015
24.89207424631203
25.34453703867198
25.9735694085144
26.79353290756398
27.8193262095548
29.06780891341572
30.55822907312505
32.30396755789096
34.20930800349559
35.9653035218965
37.20969374704713
37.77163913482715
37.64552400352272
36.78726304000122
35.05548674942279
32.13194070455275
27.32195667508475
20.25542828479331
13.22180020511004
8.769944317752538
6.243705071829982
4.62543660591719
3.546510258105964
2.827035267633226
2.357519508809203
2.068545680416967
1.898270443698026
1.795078255132305
1.726351311520425
1.675197157479653
1.634425888918365
1.601216304130595
1.578823423650344
1.606971978959743
2.001160395020932
3.683092713141064
6.528423343297386
9.669156059840967
13.14951627721812
18.75230481697124
39.05827460493965
1165102.387663588
215567.9824042681
75375.49828459075
36084.96721311271
20578.46059921042
13079.50655184236
8943.095010354822
6442.510928245391
4823.604781604205
3716.332584042168
2923.490772062467
2334.291493847793
1884.435168634651
1535.221281108391
1261.784908033074
1046.68416322539
876.7699543894237
741.7991317608439
633.7767092844003
546.5298207466311
475.3476525657124
416.6620014553602
367.7766340838756
326.6501904980067
291.7290665024708
261.8221328922341
236.0082105546961
213.5681911800834
193.9352881441245
176.6584731134216
161.375461612992
147.7926173861179
135.6698873896617
124.8094149425151
115.0468602013623
106.2447284043291
98.2871988443196
91.07608460106302
84.52765121647643
78.57009300081259
73.14151680890232
68.18832052578691
63.66388069217373
59.5274841883484
55.74345397572976
52.28043015823831
49.11077641282636
46.21008825590279
43.55678476260613
41.13176918724447
38.9181470762468
36.90099278071785
35.06715727192
33.40511164997699
31.90482199625521
30.55765224959713
29.35629258966645
28.29471151335476
27.36813029427693
26.5730189041356
25.9071126809962
25.36944902153334
24.96042308234408
24.68186083759831
24.53710665204291
24.53112068698754
24.67057858949
24.9639614966872
25.42161729625633
26.05576154618892
26.88036148404303
27.90976268459091
29.16003191917158
30.64981113695156
32.38850389079791
34.27251318762738
35.99072970263485
37.18671145665568
37.69821978670512
37.51941919258722
36.60848000901185
34.82676608547486
31.86992072238439
27.06965007367391
20.07363231375843
13.11711937584133
8.705094867343769
6.202853351382269
4.600352147207695
3.531280661935183
2.817929921771599
2.352231751539911
2.06546817463324
1.896335472393081
1.793691271340548
1.725230668773974
1.674219778058717
1.633538556792454
1.600408018023656
1.578241699075756
1.607725602582
2.00767863913585
3.697909494211368
6.542359169564232
9.673627822103969
13.13992866120204
18.73688081856324
39.04499667032569
1165102.41103329
215567.8408862029
75375.08941284628
36084.13530025357
20577.05206882696
13077.38688745282
8940.164604335814
6438.723619469366
4818.988667842078
3711.008797684656
2917.680452636498
2328.29729503975
1878.590328728411
1529.820306104861
1257.027811485318
1042.65843979298
873.4685103622987
739.154862550679
631.6954003655366
544.9129453023296
474.1047566243769
415.7156861490413
367.0633077996309
326.118831638768
291.3392910544227
261.5422100282773
235.8132953818325
213.4388536831742
193.8563320875937
176.6180059818052
161.3641699207702
147.8032045286781
135.6966381740769
124.8478578751675
115.0935049461385
106.2968610381064
98.34272154456889
91.13338968480726
84.58552171845318
78.62762392353937
73.19805255225225
68.24340494909497
63.71721719765858
59.57890375996902
55.79288949998477
52.32789585962228
49.15635135265241
46.25390317681654
43.59901162824439
41.17261298881176
38.9578394712094
36.93978731206991
35.10532590255906
33.44294241341622
31.94261762266223
30.59572959343784
29.39498274463725
28.33436044350893
27.40909980271306
26.61568767755444
25.95187704763956
25.41672286597613
25.0106361184543
24.73545400555694
24.5945228435596
24.59278815771122
24.73688326975268
25.03520293765606
25.49794132405708
26.13706126955345
26.96613368606513
27.99894584218706
29.25073735347837
30.73949689898538
32.47053525316564
34.33236978819971
36.01228085906448
37.15862992976506
37.62040843914326
37.38901401178486
36.42514018139627
34.5939377532567
31.60461819716386
26.81477124914167
19.88951238992334
13.01098601496398
8.639496800408708
6.16150804552808
4.574946137027026
3.515849440428128
2.808700915691329
2.346869991683668
2.062345001911943
1.894369099735932
1.792279927321036
1.724089510826206
1.673224339321391
1.632635082007875
1.599586051889184
1.577654226572273
1.608505040429106
2.014318648716951
3.712884282172161
6.556296267562741
9.678043508605136
13.12979504077
18.72106474860846
39.03176002480306
1165102.434623841
215567.6877756765
75374.64781659585
36083.23885080655
20575.53855137512
13075.11655972502
8937.037049199851
6434.697231503663
4814.101893047724
3705.398205231854
2911.585398056724
2322.037810019719
1872.512455899044
1524.22458539817
1252.11379470784
1038.508877570074
870.0699340892692
736.4340468279278
629.5531076146643
543.2468481027976
472.8216286332283
414.7361229248725
366.3222541698669
325.5641788858308
290.9298305900273
261.2455725511737
235.6041323345004
213.2973314680403
193.7669267573959
176.5685561336014
161.3451394672335
147.8071112933961
135.7176113688708
124.8812948785657
115.1358045081282
106.3452150599515
98.39495205482106
91.18782059121649
84.64087756257855
78.68294962475636
73.25264954149635
68.29678019561912
63.76904241406366
59.6289826631767
55.84113152357381
52.3742950236168
49.2009693198802
46.29685567499154
43.6404576679181
41.21274633272496
38.99688204032778
36.97798414985888
35.14294149495673
33.48025816152136
31.97993026927208
30.63335049717406
29.43323781631089
28.37359061360859
27.4496618086433
26.65795491612876
25.99624010289915
25.46358917239693
25.06042791415247
24.78860336270302
24.65146197336543
24.6539323877269
24.80260300502943
25.10577951119394
25.57349989131313
26.21747149366399
27.05084394979683
28.08683970868161
29.33985397274613
30.82717677172414
32.54993893707814
34.38867965735735
36.02952884378178
37.12691704477568
37.53814686861801
37.25401980536203
36.23684460870001
34.35604830892376
31.33593821922669
26.55716283209663
19.70297329099815
12.90333361293232
8.573110076129238
6.119643811024605
4.549202246668463
3.500206261881776
2.79934190484709
2.341430376705914
2.059173705667311
1.892369595017695
1.790842872575851
1.722926709789953
1.67220986485075
1.631714613513723
1.598749706348839
1.577060653103458
1.609311003703692
2.021083838254818
3.728019735612003
6.570234764971307
9.682420927931583
13.11938809886356
18.7048453065291
39.01866229067988
1165102.458168891
215567.5225321407
75374.17216867419
36082.27518651904
20573.91578475846
13072.68950258234
8933.704463637385
6430.422276249996
4808.93381931179
3699.489696963389
2905.194821893981
2315.503287384919
1866.193286024989
1518.427454206858
1247.037631623044
1034.23140871904
866.5710376569896
733.6341551039577
627.3477995422443
541.5298811799933
471.496921016262
413.7222025262791
365.5525546100575
324.9854670957287
290.5000439674938
260.931679792786
235.3802623717181
213.1432318414229
193.6667335079233
176.5098289110099
161.318111427823
147.804108036693
135.732601044407
124.9095393527085
115.1735879948661
106.3896324068989
98.44374279611378
91.23923837962209
84.69358700772207
78.73594442671127
73.3051873301482
68.34833045060178
63.81924472519066
59.6776132166107
55.88807614882089
52.4195274967319
49.24453390865867
46.33885316519135
43.68103418510377
41.25208452525019
39.03519416442513
37.01550680811816
35.17993172830009
33.51699070369912
32.01669580857013
30.67045475201754
29.47100131936716
28.41234900572084
27.48976645841693
26.699773585718