/*--------------------------------*- C++ -*----------------------------------*\
| =========                 |                                                 |
| \\      /  F ield         | OpenFOAM: The Open Source CFD Toolbox           |
|  \\    /   O peration     | Version:  v1812                                 |
|   \\  /    A nd           | Web:      www.OpenFOAM.com                      |
|    \\/     M anipulation  |                                                 |
\*---------------------------------------------------------------------------*/
FoamFile
{
    version     2.0;
    format      ascii;
    class       volScalarField;
    location    "1792";
    object      p;
}
// * * * * * * * * * * * * * * * * * * * * * * * * * * * * * * * * * * * * * //

dimensions      [0 2 -2 0 0 0 0];


internalField   nonuniform List<scalar> 
10965
(
-0.1218864065772976
-0.1189313657639168
-0.1157535336776443
-0.1126596541090243
-0.1095145909593937
-0.1063471740688753
-0.1032192945965061
-0.1001748378882768
-0.09726012988851962
-0.09447769702523254
-0.09182387192932322
-0.08932871617936028
-0.08695437042765185
-0.08478265036641504
-0.08270732228672709
-0.0808975828621971
-0.07913811575796571
-0.07775668309395438
-0.07635986252510074
-0.07551663688381674
-0.07455073494198595
-0.07432356765968419
-0.07419207598973729
-0.074937697626793
-0.07648002583184935
-0.08160770907814573
-0.1282232288113128
-0.126604184755522
-0.1248181787359363
-0.1229178004363351
-0.120588089012096
-0.1176585405974609
-0.1145125858047727
-0.1114603745361884
-0.108351294786977
-0.1052218185690222
-0.1021333711351035
-0.09913033595002825
-0.09625567573177578
-0.09351255871588451
-0.09089748620401231
-0.08844037441311761
-0.08610400047939183
-0.08396885098987351
-0.08193001459080376
-0.08015463865852863
-0.07842944718679648
-0.07707960353018826
-0.07571375154505346
-0.07490012346209972
-0.07396185813184521
-0.07376951564186078
-0.0736872821438669
-0.0744615605266833
-0.0762560185735115
-0.0814508809558772
-0.1283950340001356
-0.1269332972589529
-0.125304055623477
-0.1235181961528133
-0.1216074721518679
-0.1192889044172514
-0.1163863117505769
-0.1132754752727914
-0.1102574594496263
-0.1071797786169037
-0.1040883970206695
-0.1010400173988359
-0.09807861920818532
-0.0952442029763554
-0.09254093427756496
-0.08996534959127891
-0.08754698158943736
-0.08524910420256823
-0.08315090526579014
-0.08114882296081322
-0.0794079471569053
-0.07771706101759203
-0.07639871589036223
-0.07506357313535413
-0.07427929594881311
-0.07336789211806592
-0.07321105668791417
-0.07317648114471809
-0.07398179846511997
-0.07604220651989281
-0.08132316932265538
-0.1284034014676531
-0.1271236791633369
-0.1256564100812498
-0.1240197113912798
-0.1222345775665422
-0.1203134545078717
-0.1179971706477397
-0.1151229884806651
-0.1120423125532936
-0.1090501486249841
-0.1060009167446382
-0.1029475515742865
-0.09993904388841857
-0.0970191325545034
-0.09422523605764582
-0.0915624961365762
-0.08902717313763485
-0.08664821302162205
-0.08438933519875966
-0.0823284528694779
-0.08036339667792894
-0.0786571527216646
-0.07700062336776659
-0.07571367490299939
-0.07440900948521911
-0.07365384424774775
-0.07276846904667005
-0.07264769422505103
-0.07265886426668214
-0.07349813239348346
-0.07583991592941522
-0.0812171146154493
-0.128222968946241
-0.12710889488167
-0.1258172362223988
-0.1243424855551953
-0.1227017890970198
-0.1209120899370462
-0.1189848051692026
-0.1166682985315221
-0.1138297075740692
-0.1107852563915071
-0.1078248880640849
-0.1048084120157227
-0.1017952843845801
-0.0988283025994694
-0.09595131882832385
-0.09319905909630598
-0.09057764774452043
-0.08808317737545023
-0.08574410875875989
-0.0835246457200316
-0.08150138144642431
-0.07957359050008506
-0.07790205965941698
-0.07627992889225284
-0.07502422798749778
-0.07374982211441289
-0.07302353318848931
-0.07216336489945543
-0.07207927160992764
-0.07213413719544853
-0.0730107507283769
-0.07565015906524365
-0.08112002988617129
-0.12787264297423
-0.1269190122303921
-0.1257904569953892
-0.1244864322286596
-0.1230026996737395
-0.1213571299626206
-0.1195626172483425
-0.1176311994446088
-0.1153136362144896
-0.1125108645361564
-0.10950490833077
-0.1065814027048265
-0.103601700834456
-0.1006307512038266
-0.09770685577901296
-0.09487423658334616
-0.0921647947093184
-0.08958558341751791
-0.08713261333732919
-0.08483396646863413
-0.08265438426726671
-0.0806690873276011
-0.07877885219411634
-0.07714215789284791
-0.07555451614765625
-0.07432994168558506
-0.07308562015126691
-0.07238798371725987
-0.07155217807148966
-0.07150539584645434
-0.07160163432497503
-0.07251961346763382
-0.07547379117974087
-0.08103277442538656
-0.1274334596674132
-0.1265668916084428
-0.1255953315019056
-0.124452945612406
-0.1231378194298825
-0.121646567017144
-0.1199947917188466
-0.1181952239401401
-0.1162609759205565
-0.1139481992458667
-0.1111767637997314
-0.1082085784518885
-0.1053228648259053
-0.1023815017995144
-0.09945375786934135
-0.09657392269773102
-0.09378663732805936
-0.09112099745878219
-0.08858490612279935
-0.08617423457280832
-0.08391668736850036
-0.08177756956298618
-0.07983069487956755
-0.07797840030883019
-0.07637675661680324
-0.07482377207052458
-0.07363027123232038
-0.0724159153997818
-0.07174672973798642
-0.07093443396624718
-0.07092562487773668
-0.07106061857079318
-0.07202466504726381
-0.07531176636694731
-0.08095985438783738
-0.1328412758085069
-0.1328378768317074
-0.1328344079812647
-0.1328310767942647
-0.1328277177086671
-0.1328242468423088
-0.1328206395303794
-0.1328168769592115
-0.1328129359663238
-0.132808792397133
-0.1328044234616048
-0.1327998082312951
-0.1327949273798304
-0.1327897625401351
-0.1327842953348404
-0.1327785062065553
-0.1327723731034309
-0.1261242210032542
-0.1252386905727428
-0.1242496098208186
-0.1230942057413922
-0.1217690251766363
-0.1202709030373876
-0.1186127957972856
-0.1168081417793789
-0.1148676453412402
-0.1125676301367774
-0.1098268931733466
-0.1068968421474732
-0.104049079975957
-0.1011469432481957
-0.09826325153943512
-0.095428369120409
-0.09268730911734502
-0.0900664415795924
-0.08757445370281569
-0.08520698441309263
-0.08299132196320055
-0.0808933448246295
-0.07898543413377682
-0.07717154273982997
-0.07560523791126675
-0.07408714277862055
-0.07292471629139453
-0.0717402540613862
-0.07109933031820023
-0.07030969195048398
-0.07033955508318476
-0.07051036693350875
-0.07152590660198997
-0.07516522658911037
-0.08090421342168802
-0.1316622469933885
-0.1316587717683087
-0.1316552256040807
-0.1316518201417652
-0.1316483859712173
-0.1316448373594329
-0.1316411491483594
-0.1316373021977709
-0.131633272992327
-0.1316290370818015
-0.1316245714537041
-0.131619854988325
-0.1316148681545485
-0.1316095923716207
-0.1316040091533762
-0.131598099214078
-0.1315918417097008
-0.1315852132622606
-0.1247895900897377
-0.1238860825353647
-0.1228796000990615
-0.1217114785929567
-0.1203763604586544
-0.1188696613444713
-0.1172069367006771
-0.1153993263619505
-0.1134508606622566
-0.1111631591618976
-0.1084570939665221
-0.1055665494789909
-0.1027577298774795
-0.09989619269008444
-0.09705767405856687
-0.09426887088761578
-0.09157512133247551
-0.0890001317724262
-0.0865533168993337
-0.08423002157596604
-0.0820570942806014
-0.08000099894420591
-0.07813265732775043
-0.07635769098596351
-0.07482706661308171
-0.07334414259785445
-0.07221282541888549
-0.07105822186865915
-0.07044537050414246
-0.06967753132521884
-0.06974677955195523
-0.06995011297437392
-0.0710233733993382
-0.0750354794188919
-0.08086805386065536
-0.1304445009910829
-0.130440943160778
-0.1304373128889161
-0.1304338266430214
-0.1304303109402651
-0.130426678033136
-0.1304229022235996
-0.1304189640303207
-0.130414839591572
-0.1304105042377875
-0.1304059349478288
-0.1304011108256014
-0.1303960127545931
-0.1303906226533827
-0.1303849224304175
-0.1303788927819631
-0.1303725120473713
-0.1303657555463232
-0.1303585955577286
-0.1241919245481942
-0.1234275680602951
-0.1225074812419286
-0.121483413011359
-0.1203021001503514
-0.1189560049971584
-0.1174412642211013
-0.115773979665505
-0.1139653094482332
-0.1120136639564843
-0.1097350149988595
-0.1070653613206015
-0.1042152389620564
-0.1014467825724427
-0.0986275563357237
-0.09583554185149415
-0.09309414162348416
-0.09044896180795031
-0.08792108923397819
-0.08552060731387359
-0.08324252739183946
-0.08111324924051161
-0.07909983976759427
-0.07727173287098286
-0.07553627062843936
-0.07404171811302987
-0.07259429426795758
-0.07149415059514838
-0.07036940636513346
-0.06978442825827756
-0.069037518107122
-0.06914685348545976
-0.06937901143344408
-0.07051713489175965
-0.07492399153182602
-0.08085380042464867
-0.129196746497366
-0.129193114814125
-0.1291894094747222
-0.1291858511288984
-0.1291822626257565
-0.1291785544246058
-0.1291747003505937
-0.1291706806272407
-0.1291664710990448
-0.1291620469020293
-0.1291573849855996
-0.1291524645871371
-0.1291472668426874
-0.1291417739692882
-0.1291359681415614
-0.1291298302304449
-0.1291233386052792
-0.1291164682443329
-0.1291091904215294
-0.1291014731041429
-0.1290932802944373
-0.1290845720200737
-0.1290753054573032
-0.1290654347754693
-0.1290549110201
-0.1290436820605709
-0.1290316924667353
-0.1290188833219351
-0.1290051919864899
-0.1289905518250656
-0.1289748918869781
-0.1289581365357653
-0.1289402050377814
-0.1289210110844972
-0.1289004622344592
-0.1288784592652036
-0.1288548954123119
-0.1288296554642728
-0.1288026146890998
-0.1287736375490738
-0.128742576151734
-0.1287092683922982
-0.1286735357269869
-0.1286351804843806
-0.1285939826382297
-0.1285496959410553
-0.1285020433075829
-0.1284507113180755
-0.1283953436937751
-0.1283355336105138
-0.1282708146803515
-0.1282006504442147
-0.1281244222341222
-0.1280414152920463
-0.1279508030778312
-0.1278516297886432
-0.1277427911885113
-0.1276230139497058
-0.1274908337584892
-0.1273445724492588
-0.127182314305949
-0.1270018814048177
-0.1268008073422367
-0.1265763078745314
-0.1263252454764246
-0.1260440829876633
-0.1257288201332348
-0.1253749046941415
-0.1249770831957077
-0.1245290893066098
-0.1240234555043304
-0.1234535499820245
-0.1228117436215825
-0.1220361129703368
-0.1211012970302694
-0.1200587887258381
-0.1188635797233467
-0.1175064268550826
-0.1159857133695976
-0.1143132307676554
-0.1125026989591498
-0.1105536889311319
-0.1082853178384315
-0.1056505973721077
-0.1028415382053789
-0.1001148652617822
-0.09733965067781952
-0.09459553556270961
-0.09190296215091563
-0.0893077051844864
-0.08682827935292545
-0.08447537554842358
-0.08224363352745491
-0.08015899362217757
-0.0781891444360707
-0.0764020039217502
-0.07470668614906177
-0.07324865024952912
-0.07183710528921133
-0.07076822963990503
-0.06967338188995467
-0.06911606205337541
-0.06838919761431707
-0.06853928941595136
-0.06879613368253312
-0.07000730614828306
-0.07483241173712128
-0.08086410051265407
-0.1279112639694511
-0.1279075566878341
-0.1279037744050625
-0.1279001421696172
-0.1278964791009543
-0.1278926938159248
-0.1278887596423502
-0.1278846564841352
-0.1278803598561522
-0.1278758446553498
-0.1278710877490067
-0.1278660684559215
-0.1278607681215856
-0.1278551692245518
-0.1278492541798603
-0.1278430040115081
-0.1278363971173681
-0.1278294083643021
-0.1278220086406944
-0.1278141649096273
-0.1278058408120996
-0.1277969967318267
-0.1277875895202727
-0.1277775727910008
-0.1277668970717402
-0.1277555097535845
-0.1277433549382008
-0.1277303732371737
-0.1277165015320418
-0.1277016726999715
-0.1276858152915754
-0.127668853150822
-0.1276507049962913
-0.1276312839351976
-0.1276104968935397
-0.1275882439460582
-0.1275644175380833
-0.1275389015524312
-0.1275115701938447
-0.1274822866596767
-0.1274509015300727
-0.1274172508242549
-0.1273811536648647
-0.1273424094576555
-0.1273007944850054
-0.1272560578226737
-0.1272079164515588
-0.1271560494287148
-0.127100090987301
-0.1270396224257528
-0.1269741626359442
-0.1269031571480058
-0.1268259655923468
-0.1267418474993951
-0.1266499464005019
-0.1265492722476082
-0.1264386822235035
-0.1263168600847781
-0.1261822942112453
-0.1260332545861053
-0.1258677688999747
-0.1256835977203093
-0.1254782082829856
-0.1252487456105984
-0.124991998151193
-0.1247043532787002
-0.1243817363234321
-0.1240195233802
-0.1236123916763238
-0.1231540291745819
-0.122636999700869
-0.1220542892475509
-0.1213958163555784
-0.1206120428792602
-0.1196660353643457
-0.118603029116424
-0.1173937300330842
-0.1160272279798229
-0.1145010744604694
-0.1128243259145954
-0.1110105398461333
-0.1090643934316086
-0.1068121652989291
-0.1042109161149236
-0.1014441545545701
-0.09876068956689132
-0.09603113505813904
-0.09333636287026328
-0.09069412254651839
-0.08815021704154632
-0.08572064764532988
-0.08341665112533071
-0.08123245441453253
-0.07919352104879603
-0.077268179694408
-0.07552280529564773
-0.0738683350218039
-0.07244731466154092
-0.07107207703818191
-0.07003459304150488
-0.06896971490062712
-0.06843981485056697
-0.06773209953481638
-0.06792355755234375
-0.0682004646329513
-0.06949404273098948
-0.07476261445313875
-0.08090167131824379
-0.126589630687676
-0.1265858514505964
-0.1265819959657521
-0.1265782934301178
-0.1265745594065182
-0.1265707007619224
-0.1265666903580705
-0.1265625078093119
-0.1265581283364222
-0.1265535266428243
-0.1265486795698908
-0.1265435665791521
-0.1265381692870123
-0.1265324704955055
-0.1265264529159915
-0.1265200977738164
-0.1265133835370453
-0.1265062850301418
-0.1264987730370251
-0.1264908143323976
-0.1264823719310255
-0.1264734053809416
-0.126463871007211
-0.1264537220365129
-0.1264429086058873
-0.1264313776982595
-0.1264190730008171
-0.1264059347029381
-0.1263918992510434
-0.1263768990627879
-0.1263608621946126
-0.1263437119527526
-0.1263253664560085
-0.1263057381300458
-0.1262847331158082
-0.1262622505703273
-0.1262381818516592
-0.126212409544095
-0.1261848062893584
-0.1261552333982891
-0.1261235391669417
-0.126089556848624
-0.1260531022210656
-0.126013970654863
-0.1259719335862244
-0.1259267342962484
-0.1258780828708332
-0.1258256502070109
-0.1257690609255317
-0.1257078850451136
-0.1256416282551102
-0.1255697206470292
-0.1254915037911581
-0.1254062160490454
-0.1253129760851065
-0.1252107646185443
-0.1250984045267252
-0.1249745395067443
-0.1248376115886795
-0.1246858378248533
-0.1245171863945581
-0.124329352155105
-0.1241197311783917
-0.1238853929392613
-0.1236230473895018
-0.1233290022050939
-0.1229991034200167
-0.1226286477804075
-0.1222122312237021
-0.1217434769132327
-0.1212148894164462
-0.1206186429507224
-0.1199416749518498
-0.1191508305758894
-0.1181980957904032
-0.1171130230331573
-0.1158901749952267
-0.114515647859412
-0.1129839445120689
-0.1113039347628185
-0.1094888656924056
-0.107542681793734
-0.1053099447595608
-0.1027440914894312
-0.100021543394593
-0.0973827814806071
-0.09470058129838242
-0.0920566909959063
-0.08946639619498803
-0.0869753647878181
-0.08459715305561874
-0.08234348059863773
-0.08020812032819656
-0.0782160385672496
-0.07633622391951912
-0.07463348174021757
-0.07302062303886685
-0.07163716894758068
-0.07029871470234585
-0.06929277110082878
-0.06825796969977146
-0.06775521760424678
-0.06706573999386359
-0.06729908014056607
-0.0675908917628508
-0.06897755009947926
-0.07471668777299166
-0.08096941964614854
-0.1252274163713464
-0.125223565297064
-0.1252196367075259
-0.1252158639693417
-0.1252120591048256
-0.12520812723476
-0.1252040407514153
-0.1251997789745715
-0.1251953168253936
-0.1251906288042386
-0.1251856917146089
-0.1251804851482545
-0.1251749909726862
-0.125169192291045
-0.1251630720746339
-0.1251566116900548
-0.1251497895899192
-0.125142580428732
-0.1251349546964991
-0.1251268787909859
-0.1251183153118507
-0.1251092233843667
-0.1250995589173772
-0.1250892747293165
-0.1250783205599837
-0.1250666430039801
-0.1250541853663919
-0.125040887459187
-0.1250266853527265
-0.1250115110819529
-0.1249952923079253
-0.1249779519290047
-0.1249594076269388
-0.1249395713511585
-0.1249183487137511
-0.1248956382701373
-0.1248713306804029
-0.1248453076999533
-0.1248174409773284
-0.1247875906097685
-0.1247556033957861
-0.1247213107313968
-0.1246845260739397
-0.1246450418869035
-0.1246026259630053
-0.1245570170117175
-0.1245079193918843
-0.1244549968545295
-0.1243978651304464
-0.1243360832393344
-0.1242691433683224
-0.1241964591614244
-0.1241173523391
-0.1240310375707311
-0.1239366055656992
-0.1238330044424309
-0.1237190195040787
-0.1235932516305757
-0.1234540945683814
-0.1232997114654195
-0.1231280109094809
-0.1229366225730449
-0.1227228721066037
-0.1224837540049312
-0.1222158997581099
-0.1219155365112108
-0.1215784289436681
-0.1211997909397694
-0.1207741325293725
-0.1202950036495775
-0.1197548532118159
-0.1191453097583559
-0.1184511650046949
-0.1176503067374394
-0.1166911371431982
-0.1155856484491238
-0.1143504032248459
-0.1129678416610463
-0.1114306943387266
-0.1097489616700772
-0.1079353863871489
-0.1059898961337718
-0.1037754381323079
-0.1012485423719187
-0.09857208274694858
-0.09597957482455589
-0.09334651676920419
-0.09075516825626748
-0.08821855175309616
-0.08578202359334136
-0.0834567713849397
-0.08125493070543106
-0.07916978051107394
-0.07722576936396761
-0.07539256942103043
-0.07373338975242377
-0.07216296576782706
-0.07081767761472804
-0.06951652795502773
-0.06854229404270309
-0.06753770838607599
-0.06706178789432816
-0.06638961941971204
-0.06666522186612781
-0.06696619259036299
-0.06845810825783574
-0.07469689086188798
-0.08107054468172031
-0.1238235338965805
-0.123819612861683
-0.1238156130879278
-0.1238117719937111
-0.1238078981494096
-0.1238038949737586
-0.1237997344069712
-0.1237953954846713
-0.1237908528428342
-0.1237860808011769
-0.1237810561488798
-0.1237757586336993
-0.1237701704028821
-0.1237642748879669
-0.1237580553417113
-0.1237514932863881
-0.1237445671677775
-0.1237372514724979
-0.1237295164067995
-0.1237213280096057
-0.1237126484858093
-0.1237034365614016
-0.1236936477511069
-0.1236832344892255
-0.1236721461457246
-0.123660328954834
-0.1236477258680166
-0.1236342763469834
-0.1236199161113168
-0.1236045768369262
-0.123588185810216
-0.1235706655318552
-0.1235519332548359
-0.1235319004482824
-0.1235104721733135
-0.1234875463503936
-0.1234630128853606
-0.123436752623516
-0.1234086361041965
-0.1233785220577377
-0.1233462555951713
-0.123311666023892
-0.1232745642105639
-0.1232347394109465
-0.1231919554523971
-0.1231459461610798
-0.123096409905919
-0.1230430031252673
-0.1229853326647848
-0.1229229467966204
-0.1228553247704586
-0.1227818647277149
-0.1227018698909191
-0.1226145329492429
-0.1225189186191156
-0.1224139444359889
-0.12229835993766
-0.1221707245133528
-0.1220293842448967
-0.1218724481545953
-0.1216977642207932
-0.1215028952905573
-0.1212850945986716
-0.1210412796481809
-0.1207680017473022
-0.1204614064948407
-0.1201171777865739
-0.1197304513046365
-0.1192956635228608
-0.1188063174035217
-0.1182549293785731
-0.1176332215282092
-0.1169248253801669
-0.1161108632197692
-0.1151415215917098
-0.1140187437550887
-0.1127720820449907
-0.111381186355913
-0.1098396250396017
-0.1081584587218988
-0.1063467666683978
-0.1044043114118277
-0.102209146444735
-0.09972310727057818
-0.09709418268573335
-0.09454952335980152
-0.09196747981676173
-0.08943045415488256
-0.086949368352781
-0.08456907889469328
-0.08229848994652508
-0.08015008069645557
-0.07811659620168784
-0.07622194705073813
-0.07443651764314431
-0.0728218934569882
-0.07129478496694132
-0.06998830902046049
-0.06872502824582011
-0.06778268962867179
-0.0668084887088596
-0.06635902700118325
-0.06570321978409123
-0.06602127924164153
-0.06632502246395701
-0.06793607448219002
-0.07470572412556743
-0.08120835656090554
-0.1223745108271251
-0.122370520433367
-0.1223664500792336
-0.1223625412119016
-0.122358598980046
-0.1223545251172014
-0.1223502911131764
-0.1223458757241688
-0.1223412533078449
-0.1223363980061594
-0.1223312866036571
-0.1223258990190887
-0.1223202176949817
-0.1223142264010408
-0.122307908673948
-0.1223012461883654
-0.1222942173740096
-0.1222867965358639
-0.1222789535828804
-0.1222706541883608
-0.1222618601610963
-0.1222525298320357
-0.1222426183300905
-0.1222320777188276
-0.1222208570168351
-0.1222089021221292
-0.1221961556614888
-0.1221825567821449
-0.122168040894515
-0.1221525393678803
-0.1221359791809487
-0.1221182825136958
-0.1220993662812226
-0.1220791415859453
-0.1220575130752922
-0.122034378197021
-0.1220096262926334
-0.1219831375258597
-0.1219547815975953
-0.121924416188289
-0.1218918850864721
-0.121857015927977
-0.1218196174606165
-0.1217794762498446
-0.1217363527183709
-0.121689976395079
-0.1216400402466626
-0.1215861939448051
-0.1215280359117667
-0.1214651039987541
-0.1213968646389763
-0.1213227003327732
-0.1212418953737576
-0.121153619737017
-0.1210569111378795
-0.1209506553425471
-0.1208335648988021
-0.120704156588092
-0.1205607279694757
-0.1204013334550897
-0.1202237603264302
-0.1200255049210314
-0.1198037487522028
-0.1195553334487576
-0.1192767319726196
-0.1189640116616786
-0.1186127822422427
-0.1182181146785912
-0.117774396396356
-0.1172751269676834
-0.1167130161483227
-0.1160802162670245
-0.1153591557104561
-0.1145309232225144
-0.1135485828984355
-0.1124106797880071
-0.1111530986950907
-0.1097544289540223
-0.108209245523836
-0.1065303253037909
-0.1047213247445296
-0.102781597717777
-0.1006099815948425
-0.09816629145588211
-0.09558626009095868
-0.09309110769813184
-0.09056202661028349
-0.08808122661582465
-0.08565764073301298
-0.08333542872627089
-0.08112130773120003
-0.07902802133865784
-0.07704773922670047
-0.07520381423767505
-0.07346737784447122
-0.07189836339626068
-0.07041550744942178
-0.06914853427843272
-0.06792372770450261
-0.06701348199249035
-0.06606986288157916
-0.06564641775276579
-0.06500600253574809
-0.06536646911084557
-0.06566589931543555
-0.0674118886228218
-0.07474600840621699
-0.08138620459761241
-0.1208781418304912
-0.1208740834442227
-0.120869943906836
-0.1208659686078137
-0.1208619593414267
-0.1208578161894115
-0.1208535102021007
-0.1208490198667419
-0.1208443192748657
-0.1208393824105281
-0.1208341860781321
-0.1208287103923581
-0.1208229381239306
-0.1208168534095081
-0.120810440089919
-0.120803680001835
-0.1207965515573261
-0.1207890288837482
-0.120781081590627
-0.120772674987617
-0.120763770502571
-0.1207543260852534
-0.1207442964972611
-0.1207336334567324
-0.1207222856558073
-0.1207101986839145
-0.1206973148756889
-0.1206835730974207
-0.120668908486695
-0.1206532521461227
-0.1206365307834622
-0.1206186663009679
-0.1205995753159083
-0.1205791686045179
-0.1205573504476416
-0.1205340178560983
-0.1205090596451269
-0.1204823553292928
-0.1204537737979096
-0.1204231717054949
-0.120390391529636
-0.1203552592370131
-0.1203175814513791
-0.1202771420345777
-0.1202336979888443
-0.1201869745384116
-0.1201366592553189
-0.1200823950875679
-0.1200237721358227
-0.1199603180140746
-0.1198914866378406
-0.1198166453063942
-0.1197350599731
-0.1196458786407769
-0.119548112890581
-0.1194406176427339
-0.1193220693563799
-0.1191909429888118
-0.1190454881650268
-0.1188837050441073
-0.1187033203961478
-0.1185017642020748
-0.1182761466503796
-0.1180232345658058
-0.1177394249456977
-0.1174207116483486
-0.1170626391847346
-0.116660229102682
-0.1162078428254157
-0.1156990115406991
-0.1151267046443232
-0.1144835232970447
-0.1137503072585572
-0.112907138340812
-0.1119107617017867
-0.1107592627886102
-0.1094912575148781
-0.1080857663088061
-0.1065386214727565
-0.1048632408807645
-0.1030610583752158
-0.1011251080461584
-0.09897526841096271
-0.09657644866156793
-0.09404670741227171
-0.09160280390612495
-0.08912872013384371
-0.08670618031833975
-0.08434218055159717
-0.08207998716016908
-0.07992424018675623
-0.07788785958699257
-0.07596239567996574
-0.07417062524346332
-0.07248446924076885
-0.07096217820798564
-0.0695245663732581
-0.06829782811443362
-0.06711213963144859
-0.06623419166205492
-0.06532137733943053
-0.0649234229724821
-0.0642974066592417
-0.06469991512450556
-0.06498718613566618
-0.06688609966045173
-0.07482087155052759
-0.08160756879458969
-0.1193312304125277
-0.1193271050114645
-0.1193228972819378
-0.1193188565028312
-0.119314781166264
-0.1193105697236306
-0.1193061927946212
-0.1193016286043953
-0.1192968509873643
-0.1192918337844135
-0.1192865538380226
-0.119280991482422
-0.11927512984158
-0.1192689534429694
-0.1192624464490096
-0.1192555908614195
-0.1192483650701704
-0.1192407430178989
-0.11923269401184
-0.1192241829990053
-0.1192151710299123
-0.1192056156861747
-0.1191954713796116
-0.1191846895044229
-0.1191732184524775
-0.1191610035331773
-0.119147986821015
-0.1191341069414505
-0.1191192988059852
-0.1191034932998344
-0.1190866169168564
-0.1190685913466731
-0.1190493329856507
-0.1190287523713097
-0.1190067535149065
-0.1189832331039256
-0.118958079558877
-0.1189311718952768
-0.1189023783588282
-0.1188715547673034
-0.1188385425086962
-0.1188031661265438
-0.1187652303880345
-0.1187245167544995
-0.1186807791342703
-0.1186337387869731
-0.1185830782425531
-0.1185284340817962
-0.1184693884213559
-0.1184054589356426
-0.1183360872589997
-0.1182606256424343
-0.1181783217531659
-0.1180883015635195
-0.1179895503656903
-0.117880892016461
-0.1177609666590299
-0.1176282072783919
-0.1174808155801487
-0.1173167377638772
-0.1171336407645042
-0.1169288893865932
-0.1166995243678558
-0.1164422405674042
-0.1161533632692897
-0.1158288192730787
-0.115464097346797
-0.1150541824005678
-0.1145934247888739
-0.1140754064727854
-0.1134933782498508
-0.1128403000663569
-0.1120950864084415
-0.1112365032363068
-0.1102258381272605
-0.1090619772879398
-0.107784344787028
-0.1063732246959698
-0.104825986190577
-0.1031528517413585
-0.1013598168492496
-0.09943513541175399
-0.09730801022007554
-0.09495194245465467
-0.09247390318631439
-0.09008307468354063
-0.0876661301357653
-0.08530403011776325
-0.08300182015218556
-0.08080168879131437
-0.07870632454450951
-0.07672872366209817
-0.07485976997292795
-0.07312164916349592
-0.07148712348979824
-0.07001272660171994
-0.06862140280423421
-0.06743566990715071
-0.06628977913706231
-0.06544433565782368
-0.06456257254712712
-0.06418948382770179
-0.06357684627990416
-0.06402063157892367
-0.06428707984062682
-0.06635939165541532
-0.07493379602342191
-0.08187592009909746
-0.1177310537743163
-0.1177268626895469
-0.1177225881268738
-0.117718483172381
-0.1177143430810791
-0.1177100647091571
-0.1177056182559437
-0.1177009816927435
-0.1176961286116162
-0.1176910327291533
-0.1176856709497673
-0.1176800238631144
-0.1176740749803979
-0.1176678092470442
-0.1176612111680905
-0.1176542629228032
-0.1176469428819455
-0.1176392247995646
-0.1176310776827799
-0.1176224661224305
-0.1176133508015718
-0.1176036889532238
-0.1175934346630481
-0.1175825390255919
-0.1175709501620026
-0.1175586131384401
-0.1175454698066657
-0.1175314585908162
-0.1175165142191965
-0.1175005674067237
-0.1174835444886535
-0.1174653669983459
-0.1174459511726483
-0.1174252073751317
-0.1174030394150581
-0.1173793437341723
-0.11735400843785
-0.1173269121261896
-0.1172979224886511
-0.1172668946011369
-0.1172336688604497
-0.1171980684867864
-0.1171598965012194
-0.1171189320766849
-0.117074926147508
-0.1170275961387965
-0.1169766196834956
-0.116921627162192
-0.1168621929009551
-0.1167978248673863
-0.1167279526990388
-0.116651913945296
-0.1165689384085219
-0.1164781305345796
-0.1163784499071803
-0.1162686899817011
-0.1161474553151376
-0.1160131377084713
-0.1158638918052886
-0.1156976108023375
-0.1155119029310875
-0.115304069289762
-0.1150710831786421
-0.1148095703493947
-0.1145157884804349
-0.1141856030479964
-0.1138144546090494
-0.1133972997625374
-0.11292848493515
-0.1124016501877956
-0.1118103254982602
-0.1111477349744551
-0.110390666086543
-0.109516434400212
-0.1084915277293804
-0.1073163883409065
-0.1060301566239122
-0.1046145241114695
-0.1030670121728298
-0.1013953401924965
-0.09961222107156041
-0.09769797773623524
-0.09560286227237386
-0.09329052769506639
-0.09086625344306011
-0.08853037487256846
-0.08617284379491896
-0.08387352001886021
-0.08163541893364115
-0.07949949389244981
-0.07746662460322544
-0.07554976710081909
-0.0737390878265962
-0.07205617203587929
-0.070474686477885
-0.06904940874984797
-0.06770546676486103
-0.06656154430347055
-0.06545616341614639
-0.06464342728541755
-0.06379298254547078
-0.06344401788152733
-0.06284370773016877
-0.06332750600504468
-0.06356366796466668
-0.06583252785983143
-0.07508872438290141
-0.08219455147488124
-0.1160744160562435
-0.1160701606450085
-0.1160658206329181
-0.1160616528328202
-0.1160574493281107
-0.1160531054148664
-0.1160485908825644
-0.1160438834586158
-0.1160389565059446
-0.1160337836353459
-0.116028341842952
-0.1160226120043157
-0.116016578050154
-0.1160102253771738
-0.116003538852771
-0.1159965008445132
-0.1159890897049279
-0.1159812789983994
-0.1159730374330398
-0.1159643292519071
-0.115955114786235
-0.1159453509365879
-0.1159349914876812
-0.1159239872653175
-0.1159122861558253
-0.1158998330209926
-0.1158865695336292
-0.1158724339638474
-0.1158573609106328
-0.115841280979786
-0.1158241204129428
-0.1158058006633377
-0.1157862378910433
-0.1157653423754013
-0.1157430178246208
-0.1157191605479631
-0.1156936584609463
-0.1156663898845059
-0.1156372221055044
-0.1156060096287766
-0.1155725920433769
-0.1155367914492828
-0.1154984093450929
-0.1154572228532683
-0.1154129801880475
-0.1153653952176886
-0.1153141409679723
-0.1152588419145506
-0.1151990648932824
-0.1151343084679027
-0.1150639905790731
-0.1149874343618536
-0.1149038520310353
-0.1148123267786686
-0.1147117927665339
-0.1146010133674972
-0.1144785579470978
-0.1143427776439045
-0.1141917807636225
-0.1140234085016342
-0.1138352117813899
-0.1136244298769209
-0.1133879711563676
-0.1131223955463927
-0.1128238972905153
-0.1124882856459699
-0.1121109585861308
-0.1116868490980984
-0.1112103017954025
-0.1106750162170615
-0.1100747917155155
-0.1094030430500053
-0.1086343294780453
-0.1077444354940397
-0.1067055057917997
-0.1055200691037786
-0.1042261903589922
-0.1028070643201505
-0.1012585927132555
-0.09959089466318211
-0.09782304911600578
-0.09591911143250684
-0.09385122115929692
-0.09159052837038488
-0.08922217825998791
-0.08694315602871029
-0.08464747886544055
-0.08241343371204081
-0.08024187046786775
-0.07817239400920253
-0.07620423587670358