/*--------------------------------*- C++ -*----------------------------------*\
| =========                 |                                                 |
| \\      /  F ield         | OpenFOAM: The Open Source CFD Toolbox           |
|  \\    /   O peration     | Version:  v1812                                 |
|   \\  /    A nd           | Web:      www.OpenFOAM.com                      |
|    \\/     M anipulation  |                                                 |
\*---------------------------------------------------------------------------*/
FoamFile
{
    version     2.0;
    format      ascii;
    class       surfaceScalarField;
    location    "1792";
    object      phi;
}
// * * * * * * * * * * * * * * * * * * * * * * * * * * * * * * * * * * * * * //

dimensions      [0 3 -1 0 0 0 0];
oriented        oriented;


internalField   nonuniform List<scalar> 
21711
(
-2.738644294046191e-05
0.0007538045859335955
-2.851913796202673e-05
0.0009355285237085195
-2.88579436001258e-05
0.001111762310784036
-2.890979904078505e-05
0.001261538560285533
-2.883542191668864e-05
0.001404489652318827
-2.855133484696473e-05
0.001554783023579982
-2.799327189093385e-05
0.001708527051393041
-2.721173231120664e-05
0.001862579412259277
-2.630403333616336e-05
0.002020402834451129
-2.533369535822886e-05
0.002188953138554563
-2.430815736345093e-05
0.00237307721582234
-2.321203363972347e-05
0.002574312555531593
-2.203337096842336e-05
0.002792977694477777
-2.07640685594742e-05
0.003030303471558413
-1.939769928237777e-05
0.00328773345387382
-1.792372017347961e-05
0.0035674812663338
-1.633041659644549e-05
0.003870988758583456
-1.460191692753835e-05
0.00420119241365001
-1.27157447117067e-05
0.004559051721041516
-1.066036430606639e-05
0.004948739891107469
-8.338411111260972e-06
0.005368530178299081
-5.629274223182832e-06
0.005804789897375309
-2.713387986544245e-06
0.006238841955313541
2.16756864078674e-08
0.006703693450840298
1.058425300705452e-06
0.007276967053439788
0.00802234626547744
-1.850158974000198e-05
0.0002435560540967158
-2.112508005821423e-05
0.0003377784704885357
-2.382270010813338e-05
0.0004542969490380357
-2.64368388259453e-05
0.0005936439048114707
-2.858510842733735e-05
0.0007559528555365524
-2.981368238366627e-05
0.0009367570976657137
-3.020749229609371e-05
0.001112156120698832
-3.0276525741342e-05
0.001261607593731021
-3.020191160282141e-05
0.001404415038184048
-2.990560737073611e-05
0.001554486719346295
-2.932371214921818e-05
0.001707945156177374
-2.850940105847311e-05
0.001861765101164648
-2.756424929182648e-05
0.002019457682693526
-2.655438419068848e-05
0.002187943273448277
-2.548755435763563e-05
0.002372010386000786
-2.434757029905602e-05
0.002573172571466235
-2.312170753548642e-05
0.002791751831726936
-2.180120071238095e-05
0.003028982964726348
-2.037904822481126e-05
0.003286311301401784
-1.884380571460257e-05
0.003565946023813869
-1.718291186988495e-05
0.00386932786475501
-1.537920124002501e-05
0.004199388703009492
-1.340868291846772e-05
0.004557081202733762
-1.12587458421898e-05
0.004946589954020937
-8.825536704581002e-06
0.00536609696916847
-5.99149001456201e-06
0.005801955850677202
-2.931152234045294e-06
0.006235781617536918
-4.982263760971733e-08
0.00670081212124145
1.061866699387447e-06
0.007275855364103931
0.008023408132175211
-1.655785933256073e-05
0.000172233250123842
-1.909775196569738e-05
0.0002460959467314679
-2.180663135166629e-05
0.0003404873498759015
-2.459464242740153e-05
0.0004570849601150428
-2.728786116664899e-05
0.000596337123551942
-2.950610097826923e-05
0.0007581710953493986
-3.079709865766904e-05
0.0009380480953458021
-3.122689307302001e-05
0.001112585915115862
-3.130575229567322e-05
0.001261686452953881
-3.12287501667502e-05
0.001404338036057597
-3.092103652868333e-05
0.001554179005707163
-3.031941585131324e-05
0.001707343535503774
-2.947944186947972e-05
0.001860925127180278
-2.850575749995841e-05
0.002018483998329809
-2.746607665020308e-05
0.002186903592595205
-2.636814814255147e-05
0.002370912457500523
-2.519510713495448e-05
0.002571999530454323
-2.393362929986193e-05
0.002790490353899982
-2.257438935713495e-05
0.00302762372477795
-2.110988297686457e-05
0.003284846795031374
-1.952784565494489e-05
0.003564363986485728
-1.781495856322667e-05
0.00386761497767365
-1.595284492530366e-05
0.004197526589364755
-1.391610428881982e-05
0.004555044462106067
-1.169112993045401e-05
0.004944364979656054
-9.167714960003931e-06
0.005363573554202454
-6.231989853655846e-06
0.005799020125565672
-3.050830800265984e-06
0.006232600458486031
-4.896767687512372e-08
0.006697810258116456
1.104542927244177e-06
0.007274701853500563
0.00802451267510133
-1.452219601148975e-05
0.000118271413856524
-1.682363948632518e-05
0.0001745346936003663
-1.93657743285424e-05
0.0002486380815751685
-2.207629426736352e-05
0.0003431978698160185
-2.486007657470586e-05
0.0004598687424235528
-2.753746251179785e-05
0.000599014509490085
-2.97383569396193e-05
0.0007603719897782646
-3.101763435443968e-05
0.0009393273727612491
-3.143960783663114e-05
0.00111300788859932
-3.151140896914183e-05
0.001261758254086627
-3.142705929420598e-05
0.001404253686384322
-3.110994545236663e-05
0.001553861891864659
-3.049847295260432e-05
0.001706732063006411
-2.964959915348288e-05
0.00186007625337958
-2.866822077633087e-05
0.002017502619956332
-2.762139419335801e-05
0.002185856766010253
-2.6516275484052e-05
0.002369807338795897
-2.533569895573176e-05
0.002570818953923488
-2.406617024641929e-05
0.002789220825195783
-2.269806435924106e-05
0.003026255618887484
-2.12235743251434e-05
0.003283372305003409
-1.962984223835731e-05
0.003562770254395318
-1.790304749658897e-05
0.003865888182938322
-1.602387221433771e-05
0.004195647414078508
-1.396581076862255e-05
0.004552986400665789
-1.171460986282466e-05
0.0049421137787464
-9.154405293308291e-06
0.005361013349635672
-6.176160128561943e-06
0.005796041880397797
-2.936723831529601e-06
0.00622936102219057
1.185137723113504e-07
0.006694755020511611
1.236440924705959e-06
0.007273583926348678
0.008025749116025303
-1.278542341226663e-05
7.852906462617046e-05
-1.480505927851552e-05
0.0001202910497243714
-1.711515996568749e-05
0.0001768447942891177
-1.96635500559402e-05
0.0002511864716668654
-2.237753382087541e-05
0.0003459118535822437
-2.515801197980053e-05
0.0004626492205836288
-2.78251823951021e-05
0.0006016816799063694
-3.001225395565451e-05
0.0007625590613397769
-3.128119229692865e-05
0.0009405963111031384
-3.169556432883538e-05
0.001113422260632245
-3.175975148468783e-05
0.001261822441242735
-3.166677601554181e-05
0.001404160710916325
-3.133855698493088e-05
0.001553533672833612
-3.071520380357633e-05
0.00170610870982659
-2.985512331998181e-05
0.001859216172894981
-2.886357039953739e-05
0.002016511067038235
-2.780703363586669e-05
0.002184800229245436
-2.669212071520352e-05
0.002368692425878241
-2.550136903703459e-05
0.002569628202243948
-2.422111654077015e-05
0.002787940572702773
-2.284144894252119e-05
0.003024875951287475
-2.135426933708301e-05
0.003281885125401823
-1.974613499110564e-05
0.00356116212004741
-1.800273562243948e-05
0.003864144783573691
-1.610379409279032e-05
0.004193748472546699
-1.402170107815208e-05
0.004550904307654525
-1.174149648642219e-05
0.004939833574152536
-9.141394945291682e-06
0.005358413248096238
-6.117525968303563e-06
0.005793018011419
-2.814955904490532e-06
0.006226058452127759
2.97050048481527e-07
0.006691643014558026
1.376447575603127e-06
0.007272504528821928
0.008027125563600438
-1.135270273586605e-05
4.988939247135082e-05
-1.307755664066251e-05
8.025391853234545e-05
-1.511199596789584e-05
0.0001223254890531309
-1.743406190768477e-05
0.0001791668602304665
-1.999161795713893e-05
0.0002537440277178158
-2.271126858873426e-05
0.0003486315042151912
-2.549124365295179e-05
0.0004654291956490436
-2.815327427732688e-05
0.0006043437105317287
-3.032952478385863e-05
0.0007647353118472478
-3.158855696032368e-05
0.0009418553432802415
-3.199514535081843e-05
0.001113828849023623
-3.205108629107428e-05
0.001261878382183268
-3.194820565654503e-05
0.001404057830282629
-3.160712492654013e-05
0.001553192592103289
-3.096980078089488e-05
0.001705471385681936
-3.00961581473257e-05
0.00185834253026072
-2.909191469824875e-05
0.002015506823590698
-2.802306997112875e-05
0.002183731384517643
-2.689572337111424e-05
0.002367565079280233
-2.56921234807224e-05
0.002568424602352857
-2.439844509134966e-05
0.002786646894315559
-2.300449325611064e-05
0.003023481999451391
-2.150189480038559e-05
0.003280382526948619
-1.987662709222983e-05
0.003559536852338357
-1.811390316365785e-05
0.00386238205964775
-1.619246174307828e-05
0.004191827031125092
-1.408359555156442e-05
0.00454879544146518
-1.177155863989807e-05
0.004937521537239786
-9.128375069712696e-06
0.005355770064527157
-6.055662827207085e-06
0.005789945299175487
-2.684749516715363e-06
0.006222687538817951
4.875634411388953e-07
0.00668847070159979
1.525088417566803e-06
0.007271467003845803
0.008028650652017707
-1.019263614144899e-05
2.933979874427805e-05
-1.164795993088195e-05
5.13447162618466e-05
-1.339270921019253e-05
8.199866781297195e-05
-1.544509771506746e-05
0.0001243778775595206
-1.778219813763082e-05
0.0001815039606546571
-2.035166399288473e-05
0.0002563134935746732
-2.307978925868774e-05
0.0003513596294824585
-2.586558951091162e-05
0.0004682149959025544
-2.852662972546226e-05
0.0006070047507473179
-3.06920397265764e-05
0.0007669007218493158
-3.194106495554003e-05
0.000943104368509882
-3.23393174650707e-05
0.001114227101533954
-3.238601580467625e-05
0.001261925080523161
-3.227177332857333e-05
0.001403943587807146
-3.191597135825071e-05
0.001552836790132691
-3.126247959396261e-05
0.00170481789391828
-3.037283205469339e-05
0.001857452882720899
-2.935332461902798e-05
0.002014487316156059
-2.826953709245455e-05
0.002182647596990632
-2.712708816678995e-05
0.002366422630355969
-2.590793815089212e-05
0.002567205452336619
-2.459810498490466e-05
0.002785337061151088
-2.318712252211122e-05
0.003022071016988267
-2.166635336603831e-05
0.003278861757794305
-2.002119901352939e-05
0.003557891697985553
-1.823640779865567e-05
0.003860597268434716
-1.628970453918278e-05
0.004189880327865259
-1.41512914594822e-05
0.004546657028386975
-1.180453984179892e-05
0.004935174785621639
-9.115010067713869e-06
0.005353080534753856
-5.990109940291494e-06
0.005786820399047525
-2.545250839085193e-06
0.006219242679717261
6.910668043299021e-07
0.006685234383956126
1.682789719172861e-06
0.00727047528093124
0.008030333441736674
-2.114973169060984e-13
-9.28638498246997e-09
-3.536282792130108e-12
-2.794194398388509e-08
-1.29101495742928e-11
-4.722709772941834e-08
-3.204494524518619e-11
-6.768027926068661e-08
-6.543364479345921e-11
-8.985814869551928e-08
-1.188011834546268e-10
-1.143373935059893e-07
-1.998788175710189e-10
-1.417022129634877e-07
-3.19684462599301e-10
-1.725098875421092e-07
-4.944503155304502e-10
-2.072280652503352e-07
-7.480114002051218e-10
-2.461515162449637e-07
-1.113730374185407e-09
-2.893351570009313e-07
-1.634407154190741e-09
-3.36601194735898e-07
-2.359224946331235e-09
-3.876484381313684e-07
-3.338690337944259e-09
-4.422158545670894e-07
-4.619859903626248e-09
-5.002123638778506e-07
-6.243838817369902e-09
-5.617649501934257e-07
-6.271987869580572e-07
-1.04868159310419e-05
3.059157131380757e-05
-1.196470666485514e-05
5.282260699664729e-05
-1.373219408892046e-05
8.376615523832726e-05
-1.580543055507468e-05
0.000126451114027254
-1.816040655642768e-05
0.0001838589366577479
-2.074467600978004e-05
0.0002588977630297688
-2.348685862221693e-05
0.0003541018120964934
-2.628469554687162e-05
0.000471012832828608
-2.894541563243012e-05
0.0006096654708339945
-3.110036275736418e-05
0.0007690556689752488
-3.233956630529806e-05
0.0009443435720585508
-3.272882721030482e-05
0.00111461636243973
-3.276510197188104e-05
0.001261961355285048
-3.263790355857301e-05
0.001403816389394321
-3.226542508203601e-05
0.001552464311655893
-3.159347972964379e-05
0.001704145948566273
-3.068530793246685e-05
0.00185654471092322
-2.964790519268131e-05
0.002013449913416962
-2.85464973461262e-05
0.002181546189143738
-2.73862417615243e-05
0.002365262374772388
-2.614880839512388e-05
0.002565968018970059
-2.482006174141984e-05
0.00278400831449852
-2.338927425495121e-05
0.003020640229501747
-2.184755683215461e-05
0.003277320040372839
-2.017973676761538e-05
0.003556223877921057
-1.837010922943696e-05
0.003858787640897948
-1.639534972179519e-05
0.004187905568357646
-1.422458048789376e-05
0.004544486259154211
-1.184017314758608e-05
0.004932790378281229
-9.100949455171459e-06
0.005350341311062069
-5.920376111304013e-06
0.005783639825703384
-2.395526697211471e-06
0.006215717830303609
9.086709236808836e-07
0.006681930186335051
1.850038317202561e-06
0.007269533913538001
0.008032183480053722
-6.493649883390251e-12
-9.279891325413579e-09
-2.968282980339265e-11
-2.791875478724116e-08
-7.304200914030731e-11
-4.718373852769567e-08
-1.407490834998353e-10
-6.761257216270604e-08
-2.381296333078381e-10
-8.976076811710836e-08
-3.720817660920729e-10
-1.142034413406303e-07
-5.517829601765382e-10
-1.415225117323182e-07
-7.898231427492555e-10
-1.722718473176277e-07
-1.103867558578997e-09
-2.069140207862084e-07
-1.518667931067351e-09
-2.45736715818901e-07
-2.067604939990527e-09
-2.887862199335825e-07
-2.792412125271967e-09
-3.358763874877742e-07
-3.740300322100212e-09
-3.867005498682222e-07
-4.95944340873404e-09
-4.4099671141205e-07
-6.4949986604573e-09
-4.986768085551062e-07
-8.38726235583349e-09
-5.598726493485722e-07
-1.067231027198557e-08
-6.249136783942852e-07
-6.942758789373118e-07
-1.080125132046464e-05
3.186658091200018e-05
-1.23043745136026e-05
5.432573019071689e-05
-1.409737098551031e-05
8.555915171156471e-05
-1.619425243384438e-05
0.0001285479954772591
-1.85702801560408e-05
0.0001862349643818217
-2.117451689685722e-05
0.0002615019997724865
-2.393627488635747e-05
0.0003568635700877459
-2.674655041093521e-05
0.0004738231083547168
-2.940736662679384e-05
0.0006123262870510774
-3.155463185672471e-05
0.0007712029342062376
-3.278462054253988e-05
0.0009455735607451652
-3.316419904879292e-05
0.00111499594094674
-3.318882146071803e-05
0.001261985977697303
-3.304700293763737e-05
0.001403674570871619
-3.265581513446583e-05
0.00155207312385245
-3.196305851639481e-05
0.001703453191948394
-3.103378204030509e-05
0.001855615434446619
-2.997580085372631e-05
0.002012391932230817
-2.885404944935214e-05
0.00218042443773904
-2.767324289334045e-05
0.002364081568217129
-2.641475542398792e-05
0.002564709531500614
-2.506430261144611e-05
0.00278265786168687
-2.361090393537107e-05
0.003019186830825757
-2.204543068370524e-05
0.003275754567122253
-2.035213560313501e-05
0.003554530582840715
-1.851487235371877e-05
0.003856950377649704
-1.650922503406873e-05
0.004185899921038245
-1.430325082726788e-05
0.004542280284948363
-1.187818111129029e-05
0.004930365308565355
-9.08582573729524e-06
0.005347548955688635
-5.845932679091829e-06
0.005780399932645055
-2.234551762566982e-06
0.006212106449387506
1.14159303272552e-06
0.006678554041539603
2.027393961844423e-06
0.007268648112609183
0.008034210874015436
-1.13489832148428e-11
-9.268542330292677e-09
-4.827009328966593e-11
-2.78818336475487e-08
-1.141844518686431e-10
-4.71178241328111e-08
-2.137239996265345e-10
-6.751303257207104e-08
-3.529017958959428e-10
-8.962159027289595e-08
-5.395302908570448e-10
-1.140168127916811e-07
-7.839102008120725e-10
-1.412781317606755e-07
-1.099926361347254e-09
-1.719558310883986e-07
-1.506653042493199e-09
-2.065072940284065e-07
-2.03030455458586e-09
-2.452130642192075e-07
-2.70574567379113e-09
-2.881107787172657e-07
-3.576219875017485e-09
-3.350059131826436e-07
-4.690466412785664e-09
-3.855863032202099e-07
-6.098119141846521e-09
-4.395890585693373e-07
-7.845548699316563e-09
-4.969293788825717e-07
-9.97382410803138e-09
-5.577443738262649e-07
-1.251897065638112e-08
-6.22368483125196e-07
-1.551392121308674e-08
-6.912808608064588e-07
-7.650548659648701e-07
-9.836903072853414e-06
1.657535030231074e-05
-1.113751470629912e-05
3.316719254594934e-05
-1.266866047523365e-05
5.585687596058488e-05
-1.448997953607056e-05
8.738047077378574e-05
-1.661362757710045e-05
0.0001306716435200768
-1.901484806536028e-05
0.0001886361848721083
-2.16440045671227e-05
0.0002641311562763141
-2.442692660464496e-05
0.0003596464921271781
-2.724975483459958e-05
0.0004766459365863393
-2.991411011220314e-05
0.0006149906423300153
-3.205584622137623e-05
0.0007733446703165478
-3.327686273042879e-05
0.0009467945772550975
-3.364598325669035e-05
0.001115365061473781
-3.365766705777864e-05
0.001261997661498762
-3.349949789315135e-05
0.001403516401707306
-3.308749139819031e-05
0.001551661117357214
-3.237149361429149e-05
0.001702737194164538
-3.14184715820263e-05
0.001854662412413814
-3.033717719861051e-05
0.002011310637847632
-2.919231337273065e-05
0.002179279573912808
-2.798816854501206e-05
0.002362877423389961
-2.670581648041154e-05
0.002563427179435931
-2.53308277383552e-05
0.002781282872945534
-2.385197671804979e-05
0.003017707979805597
-2.225990702604285e-05
0.003274162497431175
-2.053829387593999e-05
0.003552808969690939
-1.867056175218994e-05
0.003855082645527005
-1.663115389924276e-05
0.004183860513185678
-1.438708285204701e-05
0.004540036213902037
-1.191827187667379e-05
0.004927896497590208
-9.069250183779185e-06
0.005344699933996286
-5.766206897294294e-06
0.005777096889358522
-2.061195265184337e-06
0.006208401437755827
1.391167702622698e-06
0.006675101678571645
2.215470567367728e-06
0.007267823809744766
0.008036426344582678
-1.595376644264254e-11
-9.252588548416024e-09
-6.706298701985877e-11
-2.783072439033783e-08
-1.570769212079913e-10
-4.702781015407476e-08
-2.910583582468512e-10
-6.737905108143045e-08
-4.757150350075781e-10
-8.943693353730743e-08
-7.198093573841495e-10
-1.137727184007387e-07
-1.034821236078094e-09
-1.409631198044546e-07
-1.435984886654972e-09
-1.715546673504588e-07
-1.943790463156468e-09
-2.059994883548124e-07
-2.585795453604357e-09
-2.445710591168542e-07
-3.39800389052059e-09
-2.872985701576831e-07
-4.4245304455424e-09
-3.339793864970521e-07
-5.714744595331442e-09
-3.842960889316735e-07
-7.318765099418284e-09
-4.379850379227477e-07
-9.283430813767653e-09
-4.949647130221326e-07
-1.165039818541501e-08
-5.553774063087231e-07
-1.445656127124835e-08
-6.19562319891861e-07
-1.773594486077389e-08
-6.880014770598192e-07
-2.152203235458202e-08
-7.61268778301037e-07
-2.58505778014965e-08
-8.399944530012807e-07
-3.076076554506208e-08
-9.248457764936083e-07
-3.629586522272203e-08
-1.016518856559461e-06
-4.250440707853753e-08
-1.115737765159807e-06
-4.944088185380184e-08
-1.223258093561197e-06
-5.716629533838152e-08
-1.339872059254205e-06
-6.57487055763096e-08
-1.466414150269862e-06
-7.526378684467581e-08
-1.603766773837876e-06
-8.579545079574641e-08
-1.752865641133036e-06
-9.743654498593399e-08
-1.914704764648038e-06
-1.102896371760533e-07
-2.090341025568277e-06
-1.244679023948253e-07
-2.280898247062349e-06
-1.400961226854249e-07
-2.487570734443842e-06
-1.573118110663726e-07
-2.711626179947812e-06
-1.762664679664629e-07
-2.954407810774029e-06
-1.971270010293692e-07
-3.21733559889668e-06
-2.200773069214477e-07
-3.501906311830651e-06
-2.453200478404772e-07
-3.809692098913257e-06
-2.730786469441399e-07
-4.142337235083038e-06
-3.035995226883196e-07
-4.50155256140662e-06
-3.371546111247092e-07
-4.889107010706833e-06
-3.740441874729237e-07
-5.306815508825759e-06
-4.146000747401393e-07
-5.756522311208449e-06
-4.591892459873859e-07
-6.240078678394036e-06
-5.082179119343854e-07
-6.759313430470467e-06
-5.621361753365418e-07
-7.315994675652432e-06
-6.214433039781606e-07
-7.911780492771574e-06
-6.866937803767478e-07
-8.548155859866714e-06
-7.58504211084344e-07
-9.226352368425343e-06
-8.37561276328803e-07
-9.947246470924148e-06
-9.246308869521699e-07
-1.071123080753618e-05
-1.020568791562307e-06
-1.15180517623849e-05
-1.126332923323175e-06
-1.236660455152447e-05
-1.242997830236523e-06
-1.325467477818957e-05
-1.371771562573048e-06
-1.417861231502094e-05
-1.514015709698123e-06
-1.513291924721601e-05
-1.671269168975119e-06
-1.610972856612484e-05
-1.845276611359796e-06
-1.709814324766179e-05
-2.038022749118151e-06
-1.808339637256457e-05
-2.251773974133779e-06
-1.904578092912653e-05
-2.489129116332162e-06
-1.995928223961729e-05
-2.753081783162964e-06
-2.078982475146665e-05
-3.047097330985184e-06
-2.149301689964354e-05
-3.375208207611432e-06
-2.201124082396872e-05
-3.742132300294628e-06
-2.22698835190061e-05
-4.153420218566004e-06
-2.217243967067539e-05
-4.615637854393446e-06
-2.159412836494072e-05
-5.136591549359369e-06
-2.037354723232976e-05
-5.725602578860354e-06
-1.830173028537372e-05
-6.393835019384504e-06
-1.510776762354059e-05
-7.154675356208343e-06
-1.043987613767341e-05
-8.02415239403089e-06
-3.840450202882663e-06
-9.021346297687322e-06
5.287075479633709e-06
-1.016861133174807e-05
1.772261533641246e-05
-1.149742683336326e-05
3.449600804802951e-05
-1.305948218487873e-05
5.741893131303604e-05
-1.491193331024289e-05
8.923292190060984e-05
-1.706555311363994e-05
0.0001328252633253819
-1.949575013282631e-05
0.0001910663818934772
-2.215199798718186e-05
0.0002667874041329105
-2.495717812434356e-05
0.0003624516722664213
-2.779644930612662e-05
0.0004794852077699412
-3.046824333405517e-05
0.0006176624363594084
-3.260529533253332e-05
0.0007754817223162494
-3.381706489502276e-05
0.0009480063468185508
-3.41748306141395e-05
0.001115722827193705
-3.417218929998712e-05
0.001261995020185016
-3.399585038392718e-05
0.001403340062791508
-3.356083057328372e-05
0.001551226097546282
-3.281908304892652e-05
0.001701995446640086
-3.183960878901776e-05
0.001853682938153315
-3.073221225576699e-05
0.002010203241314427
-2.956141949841203e-05
0.002178108781155039
-2.833110566665587e-05
0.002361647109558572
-2.702203694584486e-05
0.002562118110715001
-2.561964329013454e-05
0.002779880479290402
-2.41124615513082e-05
0.003016200798066926
-2.249091930346264e-05
0.003272540955184148
-2.073810880013316e-05
0.003551056159187983
-1.883703807239103e-05
0.003853181574800242
-1.67609523476441e-05
0.004181784427461386
-1.447584629371745e-05
0.004537751107848945
-1.196013643931943e-05
0.004925380787736105
-9.050810881357123e-06
0.005341790608438883
-5.68057699693532e-06
0.005773726655474092
-1.874206621691042e-06
0.006204595067381038
1.658860578747096e-06
0.00667156861137105
2.41493477899814e-06
0.007267067735544874
0.008038841279361549
-2.033717149665589e-11
-9.232251359800157e-09
-8.432268701480088e-11
-2.776673883756871e-08
-1.958602246397376e-10
-4.691627257167564e-08
-3.605028334148368e-10
-6.721440842180186e-08
-5.856903120060859e-10
-8.921174600149109e-08
-8.811567657935578e-10
-1.134772518841687e-07
-1.259576543054756e-09
-1.405846999558868e-07
-1.737555255251462e-09
-1.710766885550438e-07
-2.337046284826199e-09
-2.053999972327191e-07
-3.087045364894121e-09
-2.43821059932976e-07
-4.024857586483975e-09
-2.863607578247098e-07
-5.195699840919239e-09
-3.328085441199336e-07
-6.649852786483203e-09
-3.828419358580582e-07
-8.438218350554944e-09
-4.361966722283494e-07
-1.060839328854431e-08
-4.927945379515842e-07
-1.320289307174464e-08
-5.527829063915295e-07
-1.625969197863735e-08
-6.165055208502296e-07
-1.981419743215295e-08
-6.844469714703584e-07
-2.39016199963531e-08
-7.571813555987846e-07
-2.855906824826455e-08
-8.353370046080167e-07
-3.38275145827057e-08
-9.195773300138512e-07
-3.975294640367535e-08
-1.010593424587489e-06
-4.638691335311866e-08
-1.109103798052472e-06
-5.378714749500814e-08
-1.215857859252845e-06
-6.201814985425711e-08
-1.331641056718636e-06
-7.115175694920685e-08
-1.457280542986959e-06
-8.126773792539199e-08
-1.593650792660633e-06
-9.245444788613107e-08
-1.741678930956405e-06
-1.048095558371093e-07
-1.902349656464479e-06
-1.184408667460168e-07
-2.076709714408422e-06
-1.334672443614497e-07
-2.265871869175864e-06
-1.500196510577464e-07
-2.471018327454348e-06
-1.682423098729622e-07
-2.693403520815671e-06
-1.882940175913743e-07
-2.934356102713104e-06
-2.103495977990106e-07
-3.195280018319504e-06
-2.346015493858412e-07
-3.477654359845722e-06
-2.612618692050983e-07
-3.783031778666099e-06
-2.905641145961802e-07
-4.11303498923322e-06
-3.2276570368729e-07
-4.469350971825336e-06
-3.581504970498029e-07
-4.853722216822515e-06
-3.97031709573291e-07
-5.267934295748902e-06
-4.397551813507392e-07
-5.71379883884711e-06
-4.867030731048351e-07
-6.193130786026364e-06
-5.382980484666651e-07
-6.707718454467863e-06
-5.950080115980608e-07
-7.259284711854634e-06
-6.57351494394564e-07
-7.849437009287241e-06
-7.259038058427734e-07
-8.47960354771154e-06
-8.013040661306057e-07
-9.150952107417133e-06
-8.842632719748471e-07
-9.864287264348738e-06
-9.755736210208291e-07
-1.061992045775553e-05
-1.076119296416047e-06
-1.141750608625347e-05
-1.18688901348317e-06
-1.225583483372858e-05
-1.30899065351446e-06
-1.313257313743702e-05
-1.443668562153916e-06
-1.404393440567809e-05
-1.592323870496482e-06
-1.49842639381846e-05
-1.756538731942624e-06
-1.594551370401651e-05
-1.938105257351635e-06
-1.691657672160855e-05
-2.139060357697535e-06
-1.788244127160633e-05
-2.361727845842422e-06
-1.882311344038613e-05
-2.608769793313005e-06
-1.971224029158184e-05
-2.883249358166945e-06
-2.051534518605797e-05
-3.188708177640546e-06
-2.118755807963608e-05
-3.529262010171536e-06
-2.167068699090756e-05
-3.909719483980491e-06
-2.188942604468764e-05
-4.335729190776529e-06
-2.174642996340372e-05
-4.813961814491137e-06
-2.11158957408396e-05
-5.352334273973042e-06
-1.983517477260925e-05
-5.960281517617555e-06
-1.769378304170105e-05
-6.649079505109646e-06
-1.441896963626006e-05
-7.432216129323654e-06
-9.656739513827958e-06
-8.325796012088774e-06
-2.946870320559987e-06
-9.348895794883847e-06
6.31017526209803e-06
-1.052347154284555e-05
1.889719108435993e-05
-1.188303044503432e-05
3.585556695063251e-05
-1.34786242020895e-05
5.901452507104851e-05
-1.536484649234803e-05
9.111914419240204e-05
-1.755132853974141e-05
0.0001350117453748075
-2.001306586297608e-05
0.0001935281192190557
-2.26981512555943e-05
0.0002694724895279424
-2.552936183770198e-05
0.0003652828828507805
-2.839058971729309e-05
0.0004823464356515022
-3.107186076516855e-05
0.0006203437074088772
-3.320393717345332e-05
0.0007776137987258628
-3.44060271501615e-05
0.0009492084367963233
-3.475143429078698e-05
0.001116068234335199
-3.473297303475887e-05
0.001261976558929459
-3.453654861143595e-05
0.00140314363836843
-3.407622959748275e-05
0.001550765778532045
-3.330614121457113e-05
0.001701225358256972
-3.229743922436229e-05
0.001852674236162466
-3.116109482733776e-05
0.002009066896917281
-2.996150761555139e-05
0.002176909193942764
-2.870214869036848e-05
0.00236038775063359
-2.736346818754389e-05
0.002560779430212007
-2.59307598790981e-05
0.002778447770982407
-2.439232935723855e-05
0.003014662367545211
-2.273840036215234e-05
0.003270887026189795
-2.095147450866761e-05
0.003549269233334896
-1.901415617544073e-05
0.003851244256467952
-1.689842731788692e-05
0.004179668698604336
-1.456929868568842e-05
0.004535421979217574
-1.200344703386003e-05
0.004922814936084618
-9.030071464521717e-06
0.005338817232870129
-5.588366815974772e-06
0.005770284950825555
-1.672200360212861e-06
0.006200678900925767
1.946284765411682e-06
0.006667950126245253
2.62651654783722e-06
0.007266387503762845
0.00804146779590925
-2.453609312375634e-11
-9.207715244246954e-09
-1.012651800910693e-10
-2.769000970114829e-08
-2.343659224655723e-10
-4.678317177011047e-08
-4.298493851701334e-10
-6.701892489142297e-08
-6.958556023211174e-10
-8.894573970750592e-08
-1.043058778531716e-09
-1.131300486227245e-07
-1.485298443390935e-09
-1.401424601944506e-07
-2.04053159989859e-09
-1.705214552892611e-07
-2.732177977510403e-09
-2.047083507318739e-07
-3.590717450649245e-09
-2.429625203215523e-07
-4.65486135287375e-09
-2.852966137699924e-07
-5.971092682259549e-09
-3.314923126281767e-07
-7.590799801866324e-09
-3.812222285677846e-07
-9.565860536142414e-09
-4.342216113194239e-07
-1.194479376785901e-08
-4.904156045414502e-07
-1.47711080593333e-08
-5.499565919209537e-07
-1.80839767952012e-08
-6.13192651934314e-07
-2.192031785352286e-08
-6.806106302289856e-07
-2.631722421784299e-08
-7.527844490492506e-07
-3.131409251473098e-08
-8.303401361214634e-07
-3.695423602177637e-08
-9.139371863110491e-07
-4.328603711151411e-08
-1.004261623294261e-06
-5.036377999920127e-08
-1.102026054951497e-06
-5.824830558807843e-08
-1.207973333439024e-06
-6.700758857569407e-08
-1.322881773492125e-06
-7.671730991047529e-08
-1.447570821397286e-06
-8.746146258059233e-08
-1.582906639717429e-06
-9.933302312955075e-08
-1.729807370113627e-06
-1.124347059668373e-07
-1.889247973310358e-06
-1.268798137597711e-07
-2.062264606273562e-06
-1.427931936512058e-07
-2.249958488914511e-06
-1.603123123723811e-07
-2.453499208333269e-06
-1.795884675079208e-07
-2.674127365247748e-06
-2.007881320440954e-07
-2.913156437709933e-06
-2.240944758504483e-07
-3.171973674009609e-06
-2.497090475629663e-07
-3.452039787591822e-06
-2.778536764069256e-07
-3.754887149241143e-06
-3.087725811464968e-07
-4.082116083872664e-06
-3.42734746239978e-07
-4.435388806070702e-06
-3.800365814156452e-07
-4.816420380946015e-06
-4.210049129726416e-07
-5.226965963452568e-06
-4.660003422513327e-07
-5.668803408792294e-06
-5.154210482843518e-07
-6.143710079183549e-06
-5.697070675656871e-07
-6.653432434345935e-06
-6.293451585758336e-07
-7.199646619977521e-06
-6.948743263596349e-07
-7.78390784061409e-06
-7.668921214896699e-07
-8.407585751675384e-06
-8.460618271903335e-07
-9.071782400797628e-06
-9.331207536681881e-07
-9.777228336945814e-06
-1.028889729678684e-06
-1.052415148081734e-05
-1.134284133959728e-06
-1.131211168104926e-05
-1.250326685639107e-06
-1.213979228113343e-05
-1.378162407490676e-06
-1.300473741468472e-05
-1.519076122064862e-06
-1.390302069022002e-05
-1.674513180695924e-06
-1.48288268786955e-05
-1.846104009995108e-06
-1.577392287388508e-05
-2.035693406604265e-06
-1.672698732420308e-05
-2.2453758224239e-06
-1.767275885502305e-05
-2.477537978317297e-06
-1.859095128377274e-05
-2.734910626424819e-06
-1.945486764278964e-05
-3.02063212370851e-06
-2.022962368813612e-05
-3.338326335290311e-06
-2.086986386744904e-05