/*--------------------------------*- C++ -*----------------------------------*\
| =========                 |                                                 |
| \\      /  F ield         | OpenFOAM: The Open Source CFD Toolbox           |
|  \\    /   O peration     | Version:  v1812                                 |
|   \\  /    A nd           | Web:      www.OpenFOAM.com                      |
|    \\/     M anipulation  |                                                 |
\*---------------------------------------------------------------------------*/
FoamFile
{
    version     2.0;
    format      ascii;
    class       volVectorField;
    location    "1792";
    object      U;
}
// * * * * * * * * * * * * * * * * * * * * * * * * * * * * * * * * * * * * * //

dimensions      [0 1 -1 0 0 0 0];


internalField   nonuniform List<vector> 
10965
(
(0.8271796863961461 -0.1024581647518151 2.860286210685959e-15)
(0.9472924859805265 -0.1079827770373553 8.834814903267491e-16)
(1.038071116433627 -0.1091794697093932 -3.930184336765943e-16)
(1.084358470024508 -0.1083057355216019 -1.373483821660513e-15)
(1.110565362134041 -0.1067971424127717 -2.742507846958797e-15)
(1.130934817660373 -0.1046829270663567 -4.02075436640308e-15)
(1.143331399532857 -0.1014660882662134 -4.588169077524526e-15)
(1.146701164644966 -0.09729978828364526 -2.726683445716689e-15)
(1.144373968784409 -0.09249557056874222 1.874783092442735e-15)
(1.140692797249654 -0.08750922204266295 6.983747133952198e-15)
(1.137845408305723 -0.08236732430331734 1.15716528963102e-14)
(1.135785854252804 -0.07715532167946627 1.466057813686013e-14)
(1.133989737696761 -0.0717082039370525 1.528975067660367e-14)
(1.132259943198523 -0.06621418098229391 1.424078840211103e-14)
(1.130634972829551 -0.06043999277464665 1.256063610677148e-14)
(1.129141030679713 -0.05473462972697725 1.047139788984058e-14)
(1.127799010453105 -0.04865353538735618 8.040305458088191e-15)
(1.126613097813196 -0.04280877684705926 5.670846100768507e-15)
(1.125538954662066 -0.03640161046040918 3.222216604781607e-15)
(1.124596577865712 -0.03046182281048814 8.006885433196331e-16)
(1.12332378542328 -0.02371180749562546 -4.25055583103506e-16)
(1.118181389351933 -0.01741410052205705 -2.350341363399652e-16)
(1.106975425339075 -0.009611530237520233 1.394011563672632e-16)
(1.094915374191261 -0.00362235791163344 1.688572845310291e-16)
(1.094083267634737 0.002538524387745242 5.323092391029703e-17)
(1.106958152556595 0.0005856452281175612 -3.418730324834584e-19)
(0.3657258096680998 -0.06621719161412909 9.952005293387104e-15)
(0.4700886133205253 -0.07555236857274056 8.721103456884228e-15)
(0.5846846078628365 -0.0851128047086451 6.950184549606006e-15)
(0.7054735885881077 -0.09458165419365486 4.87639650028408e-15)
(0.8290283793804479 -0.1029128615935694 2.633169835892071e-15)
(0.9479990672812263 -0.108337056119299 7.252054167814079e-16)
(1.037899200122615 -0.10947760024491 -4.386724239701799e-16)
(1.08390926446671 -0.1085499335454208 -1.436487531243559e-15)
(1.110023109145512 -0.1070007577804901 -2.824503718196575e-15)
(1.130263050380611 -0.1048350539416045 -4.078948022282291e-15)
(1.142514965855044 -0.1015687068129999 -4.646674332636379e-15)
(1.145804206934795 -0.09735911665098114 -2.747015102816248e-15)
(1.143474022821586 -0.09252139921452772 1.900360565327396e-15)
(1.13983188913595 -0.08750716602537555 6.995427788918167e-15)
(1.137028322998293 -0.082340916712899 1.156775911108968e-14)
(1.135005745654846 -0.07710676275720825 1.46249482086028e-14)
(1.133242898479645 -0.07164066361405522 1.523594181522571e-14)
(1.131544845103781 -0.06612966674194339 1.417566386174905e-14)
(1.129951586218116 -0.06034125386581436 1.249359999783915e-14)
(1.128487578485571 -0.05462259561672485 1.042132722722686e-14)
(1.127175319737423 -0.04852934999813596 8.001756034147337e-15)
(1.126016634007757 -0.04267215225511458 5.655545862671086e-15)
(1.12496959896859 -0.03625078300278864 3.212867310560026e-15)
(1.124054193400489 -0.03029463876252399 8.058432159895727e-16)
(1.122794789446747 -0.02352475143396993 -4.10611570208982e-16)
(1.117654480375291 -0.01718974804791696 -2.150146700990219e-16)
(1.106486623957023 -0.009374921568616966 1.439825783961824e-16)
(1.094550148142923 -0.00331357592827462 1.692802169701308e-16)
(1.094026876147368 0.002821067289525809 5.807192604939486e-17)
(1.10713533236141 0.0007055755072535885 1.710746090714252e-19)
(0.2778931117941655 -0.05828960779877827 9.767704820846573e-15)
(0.3692490960905133 -0.06698532515789213 9.464138035796764e-15)
(0.4735168104907309 -0.07626710640437637 8.38918565580803e-15)
(0.5878785993647883 -0.08577800251099138 6.673545820601457e-15)
(0.7082474796544842 -0.09517543671045076 4.602846806765665e-15)
(0.8310108364183802 -0.1033668167487811 2.386071609314466e-15)
(0.9488138204008391 -0.1086838347629339 5.857975144152432e-16)
(1.037791045315483 -0.1097645170854615 -4.885614122790165e-16)
(1.083487542297302 -0.1087813245714541 -1.500157022162623e-15)
(1.109493957479402 -0.1071906140523509 -2.90873362488495e-15)
(1.129596161859893 -0.10497301994608 -4.177729305404197e-15)
(1.141696673608899 -0.1016572857459914 -4.719251076639689e-15)
(1.144901460054328 -0.09740489727367886 -2.744608405100027e-15)
(1.142567446338733 -0.0925345673021227 1.925854959045075e-15)
(1.138965159934863 -0.08749333948423946 7.007865680927725e-15)
(1.136206369508875 -0.08230367981040226 1.156371779933341e-14)
(1.134221406506108 -0.07704817088694407 1.459737829185701e-14)
(1.132492198888637 -0.07156388249998771 1.51792478504893e-14)
(1.130826156809807 -0.06603653695527195 1.41102280884556e-14)
(1.12926478279295 -0.06023456353064098 1.243986012942889e-14)
(1.127830794303951 -0.05450307615229198 1.036981375676772e-14)
(1.126548284220563 -0.04839820558118735 7.977243501138074e-15)
(1.125416706345026 -0.04252887827171957 5.630469101813353e-15)
(1.124396562935394 -0.03609356252468193 3.203575054045441e-15)
(1.123507931497799 -0.03012119215162304 8.087285909663954e-16)
(1.122260865705708 -0.02333099840723096 -3.921983148013241e-16)
(1.117122798813649 -0.01695801539128116 -1.971393195317429e-16)
(1.105992139741358 -0.009130270899401032 1.517793166168866e-16)
(1.0941844906215 -0.002990369976461273 1.739316884518037e-16)
(1.093981965942 0.003114683212183888 5.721610768881536e-17)
(1.107330571822248 0.0008282077701186924 -1.888785755512098e-19)
(0.2039877283845675 -0.05128325163577298 8.585485019590935e-15)
(0.2814221543956839 -0.05908835788185709 9.227638392615738e-15)
(0.3728227155550198 -0.06774908285646457 8.973141725737454e-15)
(0.4769902956174719 -0.07698338761204905 8.009553969647394e-15)
(0.5911156176167296 -0.0864506829135864 6.241905701878524e-15)
(0.7110514641522987 -0.09573854103610244 4.131714669697981e-15)
(0.833011263810808 -0.1038080357407258 2.119084924429449e-15)
(0.9496483080093439 -0.1090180901140211 4.962397909207378e-16)
(1.037695013120604 -0.1100391090807577 -5.449256586516892e-16)
(1.083067186457338 -0.10900062758649 -1.570012747634782e-15)
(1.108961627983044 -0.1073675910381113 -2.992052225659442e-15)
(1.128923486712897 -0.1050979181091245 -4.308496003851869e-15)
(1.140871312099693 -0.1017333030006385 -4.812665302743093e-15)
(1.143991593581576 -0.09743884502743726 -2.713803617903607e-15)
(1.141654428604965 -0.09253674370660628 1.973555905595018e-15)
(1.138092808964261 -0.08746928037469463 7.02595240488687e-15)
(1.135379444804054 -0.08225697620252666 1.156374160431776e-14)
(1.133432580383109 -0.07698080095351462 1.456354947654533e-14)
(1.13173736537817 -0.07147897187797514 1.511831511744155e-14)
(1.130103600148501 -0.06593582215316013 1.404324288251407e-14)
(1.128574293120475 -0.06012080262594779 1.236863181311948e-14)
(1.127170399395824 -0.05437688911631419 1.031579109273118e-14)
(1.125917638597162 -0.04826076594587886 7.9385388949227e-15)
(1.124813042597276 -0.04237957572428453 5.609081821668992e-15)
(1.12381959222971 -0.03593041073160905 3.193720404656007e-15)
(1.122957516026634 -0.02994191666183177 8.144127758290943e-16)
(1.121721906826066 -0.02313076789645548 -3.78712666937895e-16)
(1.116586529430241 -0.01671910012134582 -1.797269956764404e-16)
(1.105492079439166 -0.008877414823544478 1.571575014252542e-16)
(1.093818722231609 -0.002652003758893292 1.824140226546432e-16)
(1.09394922215389 0.003419583570632039 5.438346348540616e-17)
(1.107548690218302 0.0009558042190401323 8.919960251094552e-18)
(0.1434678103905878 -0.04531465267988612 6.273257838463084e-15)
(0.20733215264717 -0.05207863975215433 7.751759380207037e-15)
(0.2849446120592142 -0.05986789226699232 8.571722153129174e-15)
(0.3763845141088668 -0.06849764704612217 8.459969520878984e-15)
(0.4804513687023995 -0.07768419988748597 7.593295275028389e-15)
(0.5943332843419959 -0.08708823072555384 5.803173026746338e-15)
(0.7138317730353726 -0.09627043512077089 3.707068901715215e-15)
(0.8349823660631884 -0.1042282788192015 1.89529602141897e-15)
(0.9504639525354396 -0.109331938949232 4.099466574054933e-16)
(1.037586715957661 -0.1102960399049838 -6.109844321329012e-16)
(1.082636459079642 -0.109205451486361 -1.645872981265219e-15)
(1.108419752041695 -0.1075308447198485 -3.080298389934521e-15)
(1.128240761039857 -0.1052094739266155 -4.462720980331945e-15)
(1.140036510790722 -0.1017968654947367 -4.910487095257113e-15)
(1.143073715211131 -0.09746135579060193 -2.654225938928769e-15)
(1.140734772974787 -0.0925284408744317 2.035926722619229e-15)
(1.137214723480582 -0.08743547522132412 7.045004092048426e-15)
(1.134547323460228 -0.08220119538837305 1.155879467381213e-14)
(1.132638955858402 -0.07690495867172376 1.452452692438853e-14)
(1.13097806763784 -0.07138616649662635 1.505062279495583e-14)
(1.129376836575796 -0.06582770916558144 1.397724352253278e-14)
(1.127879787287428 -0.06000010417208466 1.230467845101159e-14)
(1.126506058008174 -0.05424413302928749 1.02588396155408e-14)
(1.125283065020487 -0.04811708308766528 7.905538900830479e-15)
(1.124205316074962 -0.04222427197000935 5.588220723689509e-15)
(1.123238388029834 -0.03576130694245736 3.186941417165314e-15)
(1.122402651652317 -0.02975679311241863 8.15409321641597e-16)
(1.121177660739832 -0.02292394519130612 -3.625329714813819e-16)
(1.116045517141925 -0.01647290612631505 -1.635773396526118e-16)
(1.104986169018829 -0.00861598287952324 1.660955863941271e-16)
(1.09345305311605 -0.002297536541621417 1.916935825471571e-16)
(1.093929461854606 0.003736265893493483 5.335530294146781e-17)
(1.107788880896834 0.0010900246500154 1.778603924696611e-17)
(0.09487536389164297 -0.0404055948458619 4.094121823785219e-15)
(0.146555377548335 -0.04609113757788415 5.335944875689982e-15)
(0.2106961500937294 -0.05285968144195806 6.86847395538873e-15)
(0.2884778562775516 -0.06063379693025294 7.884497314602162e-15)
(0.3799498787517694 -0.06922943377440686 7.936623176757775e-15)
(0.4839108553110769 -0.07836537515256699 7.165632353697946e-15)
(0.5975438555384117 -0.0876967347951603 5.467184215818527e-15)
(0.7165929778671289 -0.09677801156025181 3.454112987217592e-15)
(0.8369300829260586 -0.1046324126026045 1.743657545275998e-15)
(0.9512615657714827 -0.1096270405319039 3.242954611576649e-16)
(1.037465004141966 -0.1105353032640728 -6.81844170050017e-16)
(1.082194455626579 -0.1093953246833843 -1.726358307510689e-15)
(1.107867444566633 -0.1076801319971114 -3.159334987323288e-15)
(1.127546975773556 -0.1053075780451677 -4.599750677840535e-15)
(1.139191305244906 -0.1018478508396325 -5.010302887472292e-15)
(1.142146961557798 -0.09747229906891308 -2.589440887676533e-15)
(1.139807715703515 -0.09250954551425264 2.110312013466599e-15)
(1.136330203769687 -0.08739182428860519 7.058764892695634e-15)
(1.133709348169035 -0.08213623093421978 1.155405046440483e-14)
(1.1318399134361 -0.07682052290206712 1.448141777744388e-14)
(1.130213729930407 -0.07128533281789673 1.498700070049897e-14)
(1.12864533219241 -0.06571205785792457 1.390784932165644e-14)
(1.127180775247606 -0.0598723237410277 1.223932655029206e-14)
(1.12583731661168 -0.05410466225956596 1.02025053987094e-14)
(1.124644150845564 -0.04796700979853903 7.872784018394481e-15)
(1.123593138452326 -0.04206281994986923 5.567068001264065e-15)
(1.122652598718188 -0.03558609289387964 3.174762631843462e-15)
(1.121842992369547 -0.02956567189844819 8.242640689760572e-16)
(1.120627770926413 -0.02271029750702081 -3.399770980844836e-16)
(1.115499420576126 -0.0162192163152962 -1.527768469182225e-16)
(1.104473887987784 -0.008345458473387803 1.859544131716394e-16)
(1.093087619579876 -0.001925888248952356 2.024199692513365e-16)
(1.09392358378128 0.004065359890207458 5.148198431928548e-17)
(1.108052404574465 0.001230988488079188 2.914772083395831e-17)
(0.0557000605471154 -0.03633494658072717 2.505493216223187e-15)
(0.09769277764731066 -0.04114999551675984 3.24915221305662e-15)
(0.1496788293786476 -0.04685736275998688 4.499866842069395e-15)
(0.2140888891386409 -0.05363034832716707 6.086750706445459e-15)
(0.2920325553513652 -0.06138885531709647 7.210980440081545e-15)
(0.3835311606835318 -0.06994757601480794 7.395711159996672e-15)
(0.4873809668024248 -0.07902754817359162 6.720904493559871e-15)
(0.6007584709724143 -0.08828550775688503 5.14590663847763e-15)
(0.7193463911174409 -0.0972873323155634 3.234665606238475e-15)
(0.8388623420249659 -0.1050240400234993 1.607366035707944e-15)
(0.9520473933729764 -0.1099068184800144 2.407946855926171e-16)
(1.037333961709584 -0.110758903015965 -7.628589208688289e-16)
(1.08174295039443 -0.1095709657593502 -1.814758788614456e-15)
(1.107305035061197 -0.1078156393214951 -3.241936484079284e-15)
(1.126841810113745 -0.1053922572799127 -4.738345866979468e-15)
(1.138334957643353 -0.1018861197720016 -5.107583830252921e-15)
(1.141210311971434 -0.09747139537800355 -2.522070628867893e-15)
(1.138872145563466 -0.09247971112795687 2.186749898895522e-15)
(1.135438192138299 -0.08733797786801378 7.077346553526439e-15)
(1.132864566778887 -0.08206175360066098 1.154745359657052e-14)
(1.13103460076923 -0.07672718286538516 1.443480720902516e-14)
(1.129443582177471 -0.07117617489024043 1.491264872322093e-14)
(1.12790839262739 -0.06558858687618252 1.38408796464628e-14)
(1.126476631261821 -0.05973719605421596 1.216363298398254e-14)
(1.125163614882152 -0.05395822776388231 1.014855075840189e-14)
(1.12400039333392 -0.04781031261922658 7.840144915033062e-15)
(1.122976055024408 -0.04189500045285095 5.549896615341108e-15)
(1.122061814337608 -0.03540455144306907 3.164904107905986e-15)
(1.121278140692866 -0.02936835216844355 8.298589753252178e-16)
(1.120071835103149 -0.02248955019732595 -3.302798932656689e-16)
(1.114947860558098 -0.01595779099783719 -1.321320382005163e-16)
(1.103954672118452 -0.00806526988535246 1.994659355138242e-16)
(1.092722584861706 -0.001535887883822978 2.020851318227666e-16)
(1.09393261581254 0.004407588626652145 5.246874612315206e-17)
(1.108340868168364 0.001378215679625363 2.881706376300586e-17)
(-0.005920965831069919 6.304677898637995e-06 -6.996335263371809e-17)
(-0.01769638339057987 1.057176390424035e-06 -2.10468241239801e-16)
(-0.02948777092044262 -3.221901763730536e-07 -3.525049695360546e-16)
(-0.04137405863627255 -2.711833150407126e-07 -4.970609261954255e-16)
(-0.05342808348099259 -1.96144033327114e-07 -6.450235814575841e-16)
(-0.06571024138564802 -3.329545463121068e-07 -7.973055781003721e-16)
(-0.07825624722979542 -6.066205206848874e-07 -9.54425869026729e-16)
(-0.09105717093029271 -1.005679228845431e-06 -1.116227997601849e-15)
(-0.1040329625087131 -1.582145236209738e-06 -1.281792572758637e-15)
(-0.1170086359728553 -2.420914286249541e-06 -1.448927341352762e-15)
(-0.1297126729803735 -3.640508739412357e-06 -1.614040932625772e-15)
(-0.1418168289669311 -5.398889860660627e-06 -1.773102717565311e-15)
(-0.1530118409854916 -7.887612266362519e-06 -1.920527848837924e-15)
(-0.1630811952584694 -1.131298867829052e-05 -2.054415335569843e-15)
(-0.171934452640888 -1.587443177382655e-05 -2.172773900834229e-15)
(-0.179594378106395 -2.174948057238886e-05 -2.275629921475794e-15)
(-0.1861591966101118 -2.908902895113131e-05 -2.364066690571762e-15)
(0.05833014452712952 -0.03704273995999391 1.828104243838031e-15)
(0.1005549922552923 -0.04188456997318427 2.538016878998103e-15)
(0.1528428887162338 -0.0476140699731946 3.782073072877933e-15)
(0.2175150411605309 -0.05439087746714225 5.372862562673322e-15)
(0.2956129911211378 -0.06213178484260314 6.544561867801878e-15)
(0.3871322220100402 -0.07065051555949457 6.840427372509636e-15)
(0.4908656528573237 -0.07967182182000682 6.2626865650004e-15)
(0.6039783027662344 -0.08887412243839023 4.729630599787624e-15)
(0.7220935539667065 -0.09779506164814743 2.937836644763131e-15)
(0.8407837782826051 -0.105401610834042 1.457296738101701e-15)
(0.952822772159552 -0.1101718798979175 1.631957910814396e-16)
(1.037194655676947 -0.1109674836554699 -8.299052273535126e-16)
(1.081282215782339 -0.1097326141770809 -1.902928779846438e-15)
(1.106732165093494 -0.1079373060770541 -3.336250374701548e-15)
(1.126124586490048 -0.1054633515721415 -4.888851512171012e-15)
(1.137466573408367 -0.1019114285269621 -5.198358888011487e-15)
(1.140262743676858 -0.09745832583878164 -2.449514032841383e-15)
(1.137927026491906 -0.09243857287320244 2.261621391215053e-15)
(1.134537717234452 -0.0872735632941983 7.096392118261584e-15)
(1.13201209856835 -0.08197740558988303 1.153806120212105e-14)
(1.13022222241138 -0.07662459911415924 1.4386696736919e-14)
(1.128666901987104 -0.07105837128155361 1.483992955210812e-14)
(1.127165364725321 -0.06545699195828417 1.377090713624005e-14)
(1.125766764589055 -0.05959443580871054 1.209701590606965e-14)
(1.124484421541251 -0.05380456215065872 1.009786910898477e-14)
(1.123351312831677 -0.04764674253632111 7.807886930843916e-15)
(1.122353628151073 -0.04172057967596567 5.526360776624865e-15)
(1.12146563706156 -0.03521645390691852 3.155837268186589e-15)
(1.120707705643349 -0.02916462347832333 8.29175600224844e-16)
(1.119509461205992 -0.02226142053385483 -3.156676180661478e-16)
(1.114390461280109 -0.0156883932370508 -1.159603206660251e-16)
(1.103427937281839 -0.007774800190128067 2.063334545843414e-16)
(1.092358157141678 -0.001126269350847761 1.983101762541601e-16)
(1.09395772541095 0.004763736635780946 5.706401451092385e-17)
(1.108655566321297 0.001531331691672512 2.104029500169934e-17)
(-0.005917348679567197 6.450072143765607e-06 -7.228239212710715e-17)
(-0.01768392125141819 1.029125860478355e-06 -2.173919024473266e-16)
(-0.02946475713012874 -4.874057116288625e-07 -3.640827469733232e-16)
(-0.04133863518085772 -5.980603921186439e-07 -5.133265746428502e-16)
(-0.05337815859093482 -7.428147108511219e-07 -6.661452276238549e-16)
(-0.06564335179339909 -1.165832558044829e-06 -8.234290883903272e-16)
(-0.0781693246742111 -1.794788379139714e-06 -9.85662299463112e-16)
(-0.09094617401600356 -2.622952975381872e-06 -1.152800085300354e-15)
(-0.1038923877784148 -3.708170993790641e-06 -1.323782359568473e-15)
(-0.116831080924539 -5.139728098673817e-06 -1.496334645280466e-15)
(-0.1294888608617507 -7.037031686862721e-06 -1.666492235638209e-15)
(-0.141536544189673 -9.553977846232698e-06 -1.829780360632411e-15)
(-0.1526657304039086 -1.287312781050972e-05 -1.982397851437921e-15)
(-0.1626626481576159 -1.718878005994321e-05 -2.120080620094783e-15)
(-0.1714406198997694 -2.268855917842976e-05 -2.241874175707607e-15)
(-0.1790259984439181 -2.95420490383012e-05 -2.347811626525274e-15)
(-0.1855195826733454 -3.790001189263224e-05 -2.438881571274563e-15)
(-0.1910569325893379 -4.790015540827781e-05 -2.516960283152743e-15)
(0.0610115789856872 -0.03774137456185062 1.240221532089512e-15)
(0.1034674513561758 -0.0426103324273046 1.957815005752959e-15)
(0.1560527311456189 -0.04836202798928116 3.146197574329246e-15)
(0.2209792952260875 -0.05514151123826289 4.683826150507703e-15)
(0.2992236250296606 -0.06286264747422611 5.89121482964364e-15)
(0.390758046407508 -0.07134033053222201 6.286909138095252e-15)
(0.494367878126815 -0.08031679327581741 5.833254881948852e-15)
(0.6072076112495862 -0.08946183389841511 4.283011310589098e-15)
(0.7248380368249048 -0.09827932588749158 2.602741650679787e-15)
(0.8426925740264214 -0.1057629762592983 1.327517581998631e-15)
(0.953587419901294 -0.1104212660378065 8.606422057411846e-17)
(1.03704622825366 -0.1111605959892524 -8.987113269987048e-16)
(1.08081140604995 -0.1098798999079982 -2.000325685572926e-15)
(1.106147964297735 -0.1080447591339378 -3.429419673045747e-15)
(1.125394354378839 -0.1055205016741858 -5.037386305402259e-15)
(1.136585149380745 -0.1019234147295815 -5.281200847257571e-15)
(1.139303269054317 -0.0974327245557698 -2.403216100257217e-15)
(1.136971439377612 -0.09238576147241681 2.316300909527736e-15)
(1.133627939681495 -0.08719821529167605 7.10901706316318e-15)
(1.131151176727441 -0.08188283363900363 1.153616073224198e-14)
(1.129402075510028 -0.07651243256892822 1.433755625226663e-14)
(1.127883045186144 -0.07093159956719025 1.476791343131832e-14)
(1.126415661391978 -0.06531696689334132 1.369778409258327e-14)
(1.125050640637781 -0.05944375575985105 1.20282985795231e-14)
(1.123799250252459 -0.05364339493526994 1.00361798605078e-14)
(1.122696466401551 -0.04747604794544376 7.777409898755495e-15)
(1.121725445931444 -0.04153931959861017 5.50816820256944e-15)
(1.120863689112851 -0.03502156864740559 3.145454387183723e-15)
(1.120131306349141 -0.02895427218682187 8.368435152801099e-16)
(1.1189402622927 -0.02202561863178788 -3.009374882789594e-16)
(1.113826830968738 -0.01541078426547145 -9.51330754650562e-17)
(1.102893055997885 -0.0074733726373094 2.185715404093498e-16)
(1.09199458367373 -0.0006956595176462622 2.018439178017214e-16)
(1.094000215525913 0.005134649548158862 5.985980569975389e-17)
(1.108997761077831 0.001690081653478006 1.218161905638042e-17)
(-0.005912063693334361 6.603488156978903e-06 -7.440941081481034e-17)
(-0.01766633687632704 1.016724450320473e-06 -2.237870455916429e-16)
(-0.02943302650361279 -6.022999046668663e-07 -3.747912985375826e-16)
(-0.04129074262909249 -8.145320926724968e-07 -5.284756086508154e-16)
(-0.05331184242815334 -1.095723850727988e-06 -6.858945154547462e-16)
(-0.0655559735077309 -1.697994071272494e-06 -8.478645882370696e-16)
(-0.07805764510195934 -2.550141356806992e-06 -1.014939534939021e-15)
(-0.09080599612049559 -3.648500722354282e-06 -1.18707263985205e-15)
(-0.1037180738648796 -5.05554486284441e-06 -1.36296636322742e-15)
(-0.1166151075532205 -6.865446572606357e-06 -1.54080978118277e-15)
(-0.129221820158238 -9.202007077710172e-06 -1.716145624297866e-15)
(-0.1412080677452678 -1.222317861694254e-05 -1.884470027239577e-15)
(-0.1522663370989717 -1.611501324944737e-05 -2.041099410960197e-15)
(-0.1621857454191643 -2.10751734611944e-05 -2.182820364850287e-15)
(-0.1708836759911138 -2.729405184343056e-05 -2.308180874858153e-15)
(-0.1783904920652474 -3.494277070805902e-05 -2.41711196043063e-15)
(-0.1848100472621358 -4.417041892562555e-05 -2.510840903929637e-15)
(-0.1902796889599097 -5.511015684291311e-05 -2.591142178308636e-15)
(-0.1949414445211984 -6.789075317556262e-05 -2.660016166472467e-15)
(0.02821307773706737 -0.03421561482029614 2.241129683873345e-16)
(0.06374949617461215 -0.03843230825419208 6.851858953548362e-16)
(0.1064358592094466 -0.0433289870401572 1.405424718878919e-15)
(0.159313690625082 -0.0491029462590046 2.521265786718243e-15)
(0.224487032905046 -0.05588397333422625 3.958821965322927e-15)
(0.302870573234078 -0.06358498125983428 5.194502921378203e-15)
(0.39441191669763 -0.07202738660728808 5.681760248971165e-15)
(0.4978933213245001 -0.08096159536223418 5.295586949833184e-15)
(0.610452498748303 -0.09003119951350402 3.763531042700518e-15)
(0.7275847086959335 -0.09874239193704538 2.277283533871451e-15)
(0.844591563283358 -0.1061092445832892 1.21602415075649e-15)
(0.9543420128648002 -0.110654576745775 -4.115959419451862e-18)
(1.036888084643901 -0.1113377986126004 -9.828613097021897e-16)
(1.08032975841099 -0.1100123300889358 -2.084521847504402e-15)
(1.105551592301455 -0.1081375220747421 -3.548351281968679e-15)
(1.124650170686018 -0.105563260920042 -5.187514755290828e-15)
(1.135689685965285 -0.1019216374802549 -5.343786670161008e-15)
(1.138330910122124 -0.09739416082667458 -2.379762178812221e-15)
(1.136004483165357 -0.09232085838230947 2.346404167746602e-15)
(1.132708042649111 -0.08711153093658763 7.125973875568117e-15)
(1.130281056637942 -0.08177765335501985 1.152294418470753e-14)
(1.128573476784688 -0.07639031672877275 1.428297610189826e-14)
(1.127091384984758 -0.07079551323067299 1.469309699605075e-14)
(1.125658710365954 -0.06516818426959647 1.361779436592644e-14)
(1.124327737520407 -0.05928485052714039 1.19476923049385e-14)
(1.123107624261136 -0.05347443967461075 9.979949625782832e-15)
(1.122035418428486 -0.04729796410543393 7.738004036262295e-15)
(1.121091099508704 -0.04135097015029457 5.482760254373761e-15)
(1.12025559393021 -0.03481965466539574 3.134589899039584e-15)
(1.119548555162794 -0.0287370759381721 8.409547988354506e-16)
(1.118363840207815 -0.02178184199931253 -2.783657885721451e-16)
(1.113256545693623 -0.01512471932901184 -7.819448764410482e-17)
(1.102349344870936 -0.007160238809424119 2.325062348431631e-16)
(1.091632149653641 -0.000242565734682442 2.068063451503313e-16)
(1.094061533545831 0.005521241172174996 6.450785185821463e-17)
(1.109368842845325 0.001854227052342356 3.480831179871729e-18)
(-0.005902926716362921 6.742558877777606e-06 -7.647715370715066e-17)
(-0.0176374797319685 1.004378164304735e-06 -2.300036597921435e-16)
(-0.02938283463866877 -7.150189190774108e-07 -3.851523024363967e-16)
(-0.04121738758717526 -1.033532520139868e-06 -5.430532840324467e-16)
(-0.05321321283692886 -1.458963485733031e-06 -7.047382194789419e-16)
(-0.06542955890588956 -2.250716121038092e-06 -8.71147224851715e-16)
(-0.07790033732621322 -3.338937753332698e-06 -1.04274341057449e-15)
(-0.09061377174973868 -4.723266989971101e-06 -1.219575907301662e-15)
(-0.1034855641288446 -6.470740841845496e-06 -1.400448065007172e-15)
(-0.116335205239879 -8.67991026098849e-06 -1.582913389168209e-15)
(-0.1288857065422846 -1.147787276174906e-05 -1.763044670638473e-15)
(-0.1408061147986766 -1.502414102116681e-05 -1.935880550062005e-15)
(-0.1517898909631865 -1.950471626812471e-05 -2.096717302607806e-15)
(-0.1616290469128605 -2.51160541407191e-05 -2.242175362925484e-15)
(-0.170244959430274 -3.204720605419905e-05 -2.370724299537915e-15)
(-0.1776718820689872 -4.046859067871435e-05 -2.482513332350751e-15)
(-0.1840165781515458 -5.053001761147258e-05 -2.578761108522336e-15)
(-0.1894180397829693 -6.236631065189665e-05 -2.661315019153165e-15)
(-0.194018843756121 -7.610629934224817e-05 -2.732186761850442e-15)
(-0.1979493102494255 -9.188370846689552e-05 -2.793197043349648e-15)
(-0.2013212729620599 -0.0001098415142108532 -2.845971002700467e-15)
(-0.2042270364294784 -0.0001301400931681192 -2.89166590504861e-15)
(-0.2067410789028673 -0.0001529565195829063 -2.931483023704421e-15)
(-0.208922899674794 -0.0001784896342914714 -2.966270757105498e-15)
(-0.210819790117955 -0.0002069624752930935 -2.996757293181567e-15)
(-0.2124692594736769 -0.0002386241703386632 -3.023434347897569e-15)
(-0.2139010393428053 -0.0002737519523421686 -3.046774238397106e-15)
(-0.2151386829232814 -0.000312653414631713 -3.067070609014655e-15)
(-0.2162008167164347 -0.0003556689476790364 -3.08462555828613e-15)
(-0.2171021104254354 -0.0004031745440151274 -3.099640527047119e-15)
(-0.2178540247915153 -0.0004555848765781802 -3.112173539289948e-15)
(-0.2184653868502683 -0.000513356830286428 -3.122739747740753e-15)
(-0.218942831775927 -0.0005769934299683345 -3.130443817353398e-15)
(-0.2192911414541442 -0.0006470482395329176 -3.136205665086607e-15)
(-0.2195135026954011 -0.0007241302873990765 -3.139841603944735e-15)
(-0.2196117023190096 -0.0008089095686658407 -3.141357960244676e-15)
(-0.2195862719822197 -0.0009021231822201877 -3.140744343053991e-15)
(-0.2194365922735019 -0.001004582181563674 -3.137969793827943e-15)
(-0.2191609630557952 -0.001117179237834943 -3.132883532382387e-15)
(-0.2187566450427851 -0.001240897189789639 -3.125521106722995e-15)
(-0.2182198760282161 -0.001376818620436145 -3.115877561594916e-15)
(-0.2175458639334982 -0.001526136593008297 -3.103741198002924e-15)
(-0.2167287577842325 -0.001690166697718516 -3.088986110018428e-15)
(-0.2157615967377465 -0.001870360587876787 -3.071466037794542e-15)
(-0.2146362364668303 -0.002068321261121439 -3.05100965925829e-15)
(-0.2133432513300435 -0.002285820288499519 -3.027410575435396e-15)
(-0.211871809853164 -0.00252481736396503 -3.000436360370179e-15)
(-0.210209520096952 -0.002787482465808921 -2.970967035118109e-15)
(-0.2083422403434208 -0.003076221139613568 -2.937047405207389e-15)
(-0.2062538492968672 -0.003393703377884161 -2.900131752986024e-15)
(-0.2039259683920448 -0.003742896759571839 -2.85907809372017e-15)
(-0.201337626959688 -0.004127104629761525 -2.813472291591439e-15)
(-0.1984648587004675 -0.004550010289245459 -2.762941222129993e-15)
(-0.1952802150795985 -0.005015728402238272 -2.707428696292345e-15)
(-0.1917521776752286 -0.005528865169491888 -2.647745776411463e-15)
(-0.1878444472169375 -0.00609458919920527 -2.578739656679684e-15)
(-0.1835150814692063 -0.006718715588578802 -2.504448664420946e-15)
(-0.1787154473416828 -0.007407806398208319 -2.424039756620143e-15)
(-0.1733889439991173 -0.008169291605583022 -2.335710639500192e-15)
(-0.1674694431945859 -0.009011615730363619 -2.239788000377544e-15)
(-0.1608793797250984 -0.0099444167200068 -2.136302701402634e-15)
(-0.1535274085056324 -0.01097874537571033 -2.024678217541318e-15)
(-0.1453055245031086 -0.01212733574370867 -1.905183290534883e-15)
(-0.1360855167811756 -0.01340493923601884 -1.779601893246981e-15)
(-0.1257145971209088 -0.01482873789391965 -1.646892147864805e-15)
(-0.1140100063966383 -0.01641885446130189 -1.514229906646951e-15)
(-0.1007523558501702 -0.01819897900869651 -1.37394555694197e-15)
(-0.08567740449871861 -0.02019713380230254 -1.230078654667185e-15)
(-0.06846590363654113 -0.02244658369468401 -1.087000875818052e-15)
(-0.04873104802306153 -0.02498680076956447 -9.549163057619318e-16)
(-0.02600299468846794 -0.02786439935792693 -8.055437686769545e-16)
(0.0002900387313115186 -0.03113591565450439 -5.973507232635189e-16)