/*--------------------------------*- C++ -*----------------------------------*\
| =========                 |                                                 |
| \\      /  F ield         | OpenFOAM: The Open Source CFD Toolbox           |
|  \\    /   O peration     | Version:  v1812                                 |
|   \\  /    A nd           | Web:      www.OpenFOAM.com                      |
|    \\/     M anipulation  |                                                 |
\*---------------------------------------------------------------------------*/
FoamFile
{
    version     2.0;
    format      ascii;
    class       volScalarField;
    location    "0.00000067";
    object      betaFieldInversion;
}
// * * * * * * * * * * * * * * * * * * * * * * * * * * * * * * * * * * * * * //

dimensions      [0 0 0 0 0 0 0];


internalField   nonuniform List<scalar> 
44064
(
0.9998008347504075
0.9911598196013037
0.9157838281239974
0.6552081643371004
0.3332461566064976
0.1775603813419987
0.122647076879679
0.108746561922054
0.1039257290991741
0.1033012356738362
0.1073475795883773
0.1145997200912823
0.1239950542022953
0.1347113277888582
0.1460781773992537
0.1575557817210939
0.1687177063760761
0.1792407736706177
0.1888934240359154
0.1975247387417276
0.2050511657416225
0.2114445110794308
0.2167224806006865
0.2209376695245862
0.2241678454664412
0.2265106154863079
0.2280761479538915
0.2289804118305846
0.2293429846092359
0.2292844343810587
0.228923176362404
0.2283761420854261
0.2277589967277724
0.2271842536767955
0.2267649991726638
0.2266147738837233
0.2268478093957782
0.2275784982035017
0.2289173284762554
0.2309611539069616
0.2337822643302997
0.2374247902735957
0.2418757278883094
0.2471029979659522
0.2532506559386009
0.2609413039094917
0.2718995555616907
0.2896375151191082
0.3195852241099419
0.3660116860169275
0.4241476845758565
0.4796534784555163
0.5303262329339374
0.5895855634223783
0.6661442920296793
0.753430601670088
0.8362400644900025
0.9018467268526003
0.9468370022927399
0.974089936880765
0.9887476221755306
0.9957540049267406
0.9986234259168092
0.9996105575316933
0.9999206569319183
0.999985942296741
0.9999831273435712
0.9999583774630784
0.9999946155131437
1.000027892527025
0.9999963945711204
1.000006700630884
1.000003965166828
1.000004610443103
1.000003441319513
1.000003323229574
1.000003530063196
1.000003514661944
1.000003431358367
1.00000334961478
1.000003258335651
1.000003175183713
1.000003138432498
1.000003184116726
1.000003291788891
1.000003348220966
1.000003277274887
1.000003138003679
1.000003003910207
1.000002911613846
1.000002850940077
1.000002811934887
1.000002786973994
1.000002770872128
1.000002762173828
1.000002759959837
1.000002762377911
1.000002765824929
1.000002766052821
1.000002764146382
1.000002773515192
1.000002777591148
1.000002761422219
1.000002768185796
1.00000279484861
1.00000275872444
1.000003459939878
1.0274869211446
0.9999439337716178
0.9973708770621053
0.9742473345780187
0.8805301909787316
0.661907016466714
0.4102548563473108
0.2672942562391177
0.2138992508348926
0.2015514056950192
0.2047380636033775
0.2083766058208161
0.2179728467691533
0.23141173977713
0.247816867485334
0.2660247862091267
0.2850683515423093
0.304153789218151
0.3226340564317489
0.3400006146321859
0.3558836172576949
0.3700339714924372
0.3823120783041804
0.3926659824756693
0.4011122148363379
0.4077145205859442
0.4125659419623523
0.4157733015606631
0.4174437016874954
0.4175169049506042
0.416160447408093
0.4135920713370799
0.4098808455507414
0.4050925771611091
0.3992951068574094
0.3925590462314507
0.3849595899402395
0.3765754548226656
0.3674953380022229
0.3578150497051304
0.347642896961162
0.3370958320555105
0.3263004921335959
0.3153953620574828
0.3045342359480247
0.2938845955589164
0.2836313290324978
0.273963598990845
0.2650357166747953
0.2569120270046026
0.2494986652834145
0.242747210010681
0.2367302705426745
0.2319572580694203
0.2296190823695864
0.2313471096286802
0.2387358223139542
0.2525793794704035
0.2931288526136695
0.3894560656455504
0.5433514466798787
0.7065992934265289
0.8304562061374137
0.9057284851051578
0.9566362767639215
0.9835860024306331
0.9951402509667967
0.998923487070657
0.9999835088433335
1.000026191124173
0.9999584305865361
0.9999348211714286
1.000082922481072
0.9999977112055843
1.000005100110262
1.000003904418548
1.000004301278616
1.000003810259773
1.000003623593569
1.000003602096638
1.000003500935374
1.000003373829716
1.000003265566022
1.000003211838141
1.000003263573789
1.000003406876002
1.000003495706447
1.000003419981813
1.000003252685884
1.000003076726687
1.000002947360189
1.000002870940144
1.000002824533495
1.000002791441795
1.000002767048147
1.000002750989957
1.000002744524448
1.00000274650399
1.000002750700379
1.000002749650521
1.000002744197504
1.000002767496749
1.000002778306952
1.000002734748812
1.000002753952895
1.000002821186426
1.000002732535073
1.00000744043338
0.6036702930111136
0.9999493667142489
0.9976139782713818
0.9766034594540899
0.8907998728508049
0.683110191389721
0.4209692680119524
0.2563537882778851
0.19104468943144
0.1730926451561117
0.1760201992872142
0.1799070398110073
0.1883601000197594
0.2007896090042967
0.2165612658199095
0.2349054701692346
0.2549463680426869
0.2759387461956789
0.2972507998075625
0.3183560043967046
0.3388258777501252
0.3583056508251194
0.3764564928172342
0.3928444436684692
0.4064281134919792
0.4168272284133757
0.4246816297289598
0.4320875563825188
0.4388586685885563
0.4451185791920449
0.4508900352853493
0.4562006621554034
0.461080319229617
0.4655602447261563
0.4696702214021951
0.4734378677507498
0.4768886324663462
0.4800437254302859
0.4829195928751287
0.4855390623167534
0.4872895030117431
0.4897574588155414
0.4895861439969449
0.4873272039943213
0.4827824171242086
0.4760769777058727
0.4675841531738903
0.457562446373976
0.4461853732151091
0.4335794403976463
0.4198627447450999
0.4051524608547918
0.3896002562387028
0.3733967826377884
0.3567222550709045
0.3400317708312082
0.3242121475028872
0.3098103028831674
0.2979317611293092
0.2911444407993121
0.2923552550791941
0.3029339397031248
0.3517861011856841
0.4551338313153299
0.6288727556090057
0.7952691077453953
0.910115533553962
0.9678982877242766
0.9956692015843711
1.002504850332892
1.00158257514598
1.000172174281906
0.9999527044880678
1.00000676135785
1.000013117614968
1.000003201524857
1.000003156382779
1.000003375549075
1.000003334641493
1.000003304510209
1.000003256430479
1.00000318618151
1.000003119806627
1.000003084945862
1.000003128220238
1.000003254192031
1.000003351205722
1.000003313867299
1.000003190435553
1.000003053870245
1.000002949074777
1.000002876782528
1.00000282768687
1.000002792366369
1.000002766361324
1.000002749390283
1.00000274283046
1.000002745124799
1.00000274921991
1.000002747929706
1.000002742203058
1.000002766338964
1.000002777714086
1.00000273235062
1.000002752796126
1.000002821600238
1.000002741203378
1.000016891105994
0.3260838139849973
0.9999720160666636
0.9986253084904657
0.9865014902954883
0.9364282669523158
0.8050452155570398
0.5869047686981581
0.3893842336955121
0.2839742616479693
0.2459648538311806
0.2424157430819408
0.2444602318427362
0.2496657263671302
0.2603757402563919
0.275677204538522
0.2945244165373343
0.315644246248917
0.3380078319247437
0.3607834717136668
0.3832951693817684
0.4049659178366651
0.4252092660783289
0.4432538996538956
0.4581945499894389
0.4698989298616552
0.4795986681547902
0.4878706538202267
0.4954716578033958
0.5024343687485271
0.5087969833642297
0.5146043638402004
0.5198952694892486
0.5247150369289402
0.5290993031014475
0.5330860017389915
0.5367109184905707
0.540001866935448
0.5429885634207992
0.5456876467148473
0.5481156575277315
0.5502680701916326
0.5521150254179784
0.5536080882911859
0.5546865289581446
0.5553004620409041
0.555409157042608
0.5549708173668091
0.5535743800385037
0.55170257242929
0.5471924849536027
0.5397067664055679
0.5291245251736428
0.5153546523029942
0.4989585730967692
0.4806859408725748
0.4611782267773011
0.4411228109937447
0.4214478717779283
0.4040146646266398
0.3916727551603215
0.3818675946108259
0.3724625722638675
0.3670564430506517
0.3700484326728895
0.3887735817683366
0.4626208611223575
0.6072343042309466
0.7858097444452555
0.9166160902509317
0.985155285640465
1.007474594686639
1.007108568643525
1.002210570271369
1.00023013035313
0.9999992501610184
1.000010259117423
1.000003559478476
1.000003342401197
1.000003364222501
1.000003333058036
1.000003268724041
1.000003189049137
1.000003116639677
1.00000307296924
1.000003104521141
1.000003220580127
1.000003311160517
1.000003272167283
1.00000315296991
1.000003024881572
1.00000292916851
1.000002864381062
1.000002820881593
1.000002790005751
1.000002767464576
1.000002752626192
1.000002746711801
1.000002748897042
1.000002752907301
1.000002751728153
1.000002745842161
1.000002766357702
1.000002776380436
1.00000273509602
1.000002754460386
1.000002826990911
1.000002767195203
1.000031901396894
0.6073563267250933
0.9999759409364223
0.9988017022059577
0.9882249549058851
0.9444342601296353
0.8279590901910195
0.6244163422831945
0.4216620980490548
0.3033769979795278
0.2572669159346565
0.2505146862868113
0.2498227468976528
0.2535195404733941
0.2631120276709504
0.2776573838069328
0.2960996498636318
0.3171244287389811
0.3396624576289251
0.3628542030876835
0.386001881492691
0.408521949704322
0.4298560159111207
0.4493214805103465
0.4658502367890681
0.4792360762496927
0.4889487592054347
0.4980600886026363
0.5065919380042313
0.5145662200743339
0.5220067672544498
0.5289454155803841
0.5354223473259699
0.5414746147426283
0.5471435867570071
0.5524692349022798
0.5574868995297695
0.5622306653536611
0.5667320596732981
0.5710219955725787
0.5751219891072612
0.5790530114174511
0.5828080175787635
0.586365876632855
0.5897023894535022
0.592789826702377
0.5955975734046011
0.5980810118868733
0.6001799956370912
0.6017977105692136
0.6028179170724328
0.6028323569902926
0.6021085206582641
0.5988264202415369
0.5919271644537424
0.5808671874695495
0.5658718943069442
0.5473749196988993
0.5262291020700799
0.5032941437916844
0.479747604384698
0.4574529207800415
0.4433706550500129
0.4356442529405518
0.428694113417511
0.4254173944249363
0.4319180570867335
0.4569513326000167
0.5501130447374075
0.7299280300233428
0.8858365947097645
0.9811407286735108
1.014072453077917
1.015515935280728
1.005699119023476
1.00103959481081
1.000049901468714
1.000008988271927
1.000003706544134
1.00000342782547
1.000003372895977
1.000003324405106
1.000003248492815
1.000003163379854
1.000003107045066
1.000003138640984
1.000003271064767
1.000003379130917
1.000003337905651
1.000003202991991
1.00000305726173
1.000002948841457
1.000002875558539
1.000002826472811
1.000002791788154
1.000002766493231
1.000002749901511
1.000002743208186
1.000002745415425
1.000002749772027
1.000002748582133
1.000002742160328
1.000002764581217
1.000002775199304
1.000002731323945
1.000002753484427
1.000002904779721
1.000003030392744
1.000053824509716
0.8505335372237475
0.9999825255215594
0.9990967325255322
0.9911116452518346
0.9579534080315539
0.8681580257563428
0.6991172298205743
0.5016673279289376
0.3658483442170909
0.3037028501722717
0.2854123700232781
0.2891729663690117
0.2935900576413877
0.3041776917332133
0.3187677343743065
0.3371005612914784
0.3580211181615967
0.3804751361283593
0.4035849575701529
0.426632576481453
0.4490008390849108
0.470065035981361
0.4889894297957795
0.5043995642748061
0.51555390700764
0.5257609647804282
0.5347591974246001
0.543170542835817
0.5510094454797426
0.5583016388512572
0.5650833280878791
0.5713924494445156
0.577271712159898
0.5827632254687864
0.5879043493321999
0.5927328227626154
0.5972813004415155
0.6015822464707687
0.6056659466648769
0.6095608928321298
0.6132855357209891
0.6168370447639804
0.6201987127772413
0.6233495545532483
0.6262629583899978
0.6289165511822493
0.631280444429224
0.6333165145852514
0.6349685998999198
0.636169163563883
0.6368240022579953
0.6368123506973237
0.6357319417396968
0.6336670742611016
0.6304616309532509
0.6235499549081894
0.6126479408822338
0.5973034253548798
0.5782939884806526
0.5560227438391101
0.5316371393541297
0.5068412854600529
0.4844839032954165
0.4736729587621669
0.4690553585198293
0.4661146620235245
0.4710509289584744
0.4884616665209262
0.5522496569825167
0.718007073436698
0.8889131084324671
0.9816066875278574
1.028522810874658
1.023685552400584
1.008933226594255
1.001565845285442
1.000117127673902
1.000007217085619
1.000004031949005
1.000003642420347
1.000003438720979
1.000003297450236
1.000003204584286
1.000003140526311
1.000003162117763
1.000003307108698
1.000003431901439
1.000003391073712
1.000003244540413
1.000003084899266
1.00000296613858
1.000002885618347
1.000002831685916
1.000002793638284
1.000002765875347
1.000002747681453
1.000002740462745
1.000002742974921
1.000002747702118
1.000002746434631
1.000002739383258
1.000002763704374
1.000002775582769
1.000002726700683
1.000002751453616
1.000003451362952
1.000005425973668
1.000097241279399
1.044308209525799
0.9999854127528313
0.9992254965429871
0.9923762443868748
0.9638998393878591
0.8861875143657716
0.7352889420824243
0.5450816733223892
0.4008556736624637
0.3287867547446585
0.304758528398008
0.3067469096991201
0.3099437722741441
0.319454691532385
0.3330846899209851
0.3508049118193438
0.3714073902385756
0.3937632130461814
0.4169318014049168
0.4401478499953225
0.4627677426097292
0.4841631144338304
0.5035396460425354
0.5196120738586812
0.5305026506279511
0.540979356910648
0.5501634103192715
0.5587864783550682
0.5668443555161312
0.5743586003724099
0.5813570652535383
0.58787789221736
0.5939567231931457
0.5996341742649728
0.6049503824558876
0.6099448931342774
0.614654370612621
0.6191136960550457
0.6233521247676361
0.6273987496497833
0.6312725787643569
0.6349773424853518
0.6384993375798188
0.6418204065255535
0.6449222454162518
0.6477877854393329
0.6503949736876979
0.6527171753609157
0.6547168944896342
0.6563481240473065
0.6575480724863941
0.6582402328256745
0.6583231934028421
0.657666693036272
0.6557432337761738
0.6524254905535105
0.6477454024722468
0.6389065555276752
0.6254784701453532
0.607973933599766
0.586777834105898
0.5629509010736957
0.5379848746127581
0.5146800726288363
0.5001587075069515
0.4952195714885999
0.4934902491299552
0.498061652561628
0.5185021601879352
0.574565464869441
0.7414661602178849
0.9296179347960657
1.007532563373945
1.042380719481765
1.028257091229464
1.009005387090605
1.00137834391906
1.000097719287971
1.000004196315732
1.00000359401878
1.000003381760692
1.000003321952733
1.000003215374717
1.000003141405787
1.000003170735611
1.000003322729239
1.000003457509293
1.00000341761024
1.000003265273056
1.000003097876871
1.000002973708397
1.000002890053026
1.000002834221906
1.000002794950654
1.000002766331057
1.000002747550815
1.000002739929805
1.000002742365186
1.000002747300467
1.000002746082094
1.000002738792277
1.000002763672061
1.000002776140037
1.00000272429214
1.000002752752794
1.000003900617465
1.000010317468567
1.000142379635762
0.9950687867578334
0.9999889026070082
0.9993811480919197
0.9939079144522976
0.9711121499252076
0.9084109993153646
0.7825972270455847
0.6096766357700206
0.4613637793498834
0.3784385480242484
0.346772546631865
0.344919381224009
0.3490144249376537
0.3554352933287422
0.3667364082297394
0.3828499573115534
0.4023480098345982
0.4239214994508141
0.4465048951714448
0.4692400220460795
0.4914123352639082
0.5123168468534828
0.5310467590963333
0.5461357530789838
0.5570038715061193
0.5672215660725088
0.5763411543267851
0.5848775458628199
0.5928297226604092
0.6002245902586714
0.6070946564087365
0.613480874197492
0.6194230366606323
0.6249634291160395
0.6301369837347649
0.6349812601136614
0.6395319184817527
0.6438195668345803
0.6478734686719428
0.6517211148729349
0.6553812952764887
0.6588545756001934
0.6621287536295016
0.6651851627086894
0.6680045740586634
0.6705681728321714
0.6728509299410614
0.6748295081753342
0.6764819746056085
0.6777732684033242
0.6786595439297608
0.6790798192307823
0.6789593968003564
0.6781990889648407
0.6766755729651645
0.6739035382364477
0.6700361698401208
0.6640933445788201
0.6558984287143748
0.6427577387437393
0.6262729934454826
0.6058298258392991
0.5826408511344155
0.5581911735121307
0.5351520580986387
0.5195175949216349
0.5149598216864074
0.5153544721286643
0.522418611125171
0.5493139150889669
0.6166767422872195
0.8042554191813927
0.9755481156609573
1.03357345325254
1.050018851213548
1.025819924279152
1.006692761527605
1.000842261115835
1.000035305417117
1.000004087174673
1.000003694345022
1.00000335652636
1.000003248180238
1.000003166669506
1.000003178720142
1.000003336164393
1.000003480854368
1.000003441386051
1.00000328313903
1.000003109249383
1.00000298064802
1.000002894083569
1.000002836584763
1.000002796383669
1.000002767253259
1.000002748206773
1.000002740483027
1.000002742905543
1.000002747914306
1.000002746853477
1.000002739696313
1.00000276456491
1.00000277670106
1.000002723646211
1.000002756856843
1.000004043019821
1.000019923933517
1.000180189516506
1.370107590804553
0.9999907052387749
0.9994629200452106
0.9946991109457869
0.9748471081731571
0.9200042259901369
0.8080573110400966
0.6467657268142276
0.4974855349669328
0.4075559767554192
0.3704877456044676
0.3660942919740817
0.3687656479013343
0.3738199542701122
0.3839809299083722
0.3993014936366876
0.4182897130569987
0.4395513907874609
0.4619527152402524
0.4845914734750686
0.5067291167855626
0.5276684951786276
0.5465459086441578
0.56197497969363
0.5720613244390418
0.582188873598301
0.5911969746164054
0.5996445288509322
0.6075126384492558
0.6148238141465648
0.6216016785479991
0.6278849136921155
0.633709173100952
0.6391159941114225
0.6441465076048825
0.64883573256822
0.6532214873110922
0.6573350443254318
0.6612066801393406
0.6648650182923117
0.6683301312275369
0.6716031897066842
0.6746723958313814
0.6775207700964255
0.6801322644929624
0.6824929920884231
0.6845909167880555
0.6864063222000556
0.687914123548667
0.6890863305355643
0.6898832554655959
0.6902582028343548
0.690151042946799
0.68948841554284
0.6881750344821534
0.6861004320896571
0.6828109460272305
0.6782779204964435
0.6718239076523248
0.6631335488189219
0.6506768399838148
0.6338133219822268
0.6137372525664043
0.5914626030326546
0.5683579982523114
0.5470133446998889
0.5328886570109139
0.5301446652837883
0.5332671332505673
0.5449921403572902
0.5828705274655476
0.675983370289637
0.9000092791379163
1.020698289637638
1.056170512265108
1.044498020523635
1.019297877126706
1.003943982280866
1.000347934217515
1.000006239274012
1.000003408996467
1.000003379484016
1.000003254590906
1.000003166271807
1.00000318618215
1.000003348553604
1.000003502643969
1.000003464521443
1.00000330149879
1.000003120829449
1.000002987460824
1.000002898207014
1.000002839102405
1.000002797906898
1.000002768149799
1.000002748726515
1.000002740819535
1.000002743232375
1.000002748409588
1.000002747640154
1.000002740952896
1.000002766485855
1.000002777564691
1.00000272286986
1.000002767557722
1.000005373771733
1.000041148574929
1.000222962337421
1.353333408104909
0.9999926461708849
0.9995494928266077
0.9955511301808734
0.9788740381572167
0.9326181879106678
0.8366729458641726
0.6919435598046053
0.5466932603189546
0.4512187294484584
0.4084738013184873
0.4014688542411597
0.4007603689941633
0.4038252183668058
0.4121961914096332
0.4261752491913058
0.444150192982908
0.4646161642714662
0.4863559739427545
0.5084062100278954
0.529981650120067
0.5503424603662356
0.5685747813255473
0.5832140439506519
0.5930057744481881
0.6028021599269643
0.6116008296601884
0.6198359722800909
0.6274883311590358
0.6345776994187829
0.6411357042688918
0.6471984019292552
0.652803502845976
0.6579920065040811
0.6628040326318287
0.667273818862937
0.6714373835673326
0.6753273122657441
0.6789700872981822
0.6823922003165914
0.6856106214127141
0.6886282661003907
0.6914310622333592
0.6939997240013914
0.6963203949754385
0.6983769604806055
0.7001532761314795
0.7016366933924169
0.7028031870749127
0.7036321793056082
0.7040911617063351
0.7041419459229251
0.7037329592034859
0.7028020915410329
0.7012750674364958
0.6990631983102205
0.6960545220707752
0.6917973220568407
0.6861988214609137
0.6782536962006305
0.6679377921343226
0.6546071419308707
0.6373944397465418
0.617430288121234
0.5957365283975335
0.5737847312304417
0.5543712421952112
0.5434902505805148
0.5441057266308689
0.5515387104477424
0.570247895035654
0.6268787329212647
0.7655503413142845
0.9922747158969651
1.06501305651852
1.068813245189271
1.040030855420554
1.011895162711501
1.001724022164715
1.000062543397413
1.000003452878418
1.000003460109139
1.000003294834381
1.000003187759908
1.000003190030784
1.000003357547352
1.00000352044223
1.000003483313114
1.000003315950769
1.000003130297842
1.000002993324446
1.000002901635842
1.000002841146811
1.000002799187811
1.000002769024839
1.000002749360278
1.000002741291085
1.000002743618725
1.000002748856917
1.000002748368165
1.000002742175292
1.00000276831937
1.000002779276028
1.000002721691099
1.000002910324367
1.000012716014179
1.000042330856239
1.000172435127354
0.7801433162228586
0.999993784402591
0.9996002622881064
0.9960505797257382
0.9812391833057063
0.9400450005870936
0.8537437075467534
0.7197965082137954
0.5780088332473738
0.4788263570425682
0.4317577108493002
0.4223251488970857
0.4199684121995301
0.4215743910354384
0.4286427048108908
0.441668192124111
0.458965330305606
0.4789420322868066
0.5003126677568025
0.5220674827421656
0.5433981851259776
0.5635644041170185
0.5816786487484011
0.5963364418207946
0.6056366664096817
0.6152949205494143
0.6239413902931309
0.6320349650628249
0.6395473782811573
0.6464927174436323
0.6529000530354224
0.6588028449739677
0.6642370925193637
0.6692424527713716
0.673857736369841
0.6781158571048014
0.6820528826069426
0.6856986531242557
0.6890831129328573
0.6922300168285334
0.6951594654683804
0.6978758827407686
0.7003682107655969
0.7026233285776035
0.7046283887548412
0.7063673970952414
0.7078284224614682
0.7089978333741073
0.7098578732817526
0.7103863933090224
0.7105602827383234
0.7103503297032422
0.7097156057414162
0.7086086496906479
0.7069697732625186
0.7047291566868871
0.7018001066639192
0.6980850960709503
0.6931616654757151
0.6865021694798892
0.677035277250164
0.6669455572268328
0.6526640409351502
0.6353080203622109
0.615836249102677
0.5951418844482129
0.5747966945851318
0.5578645493177734
0.5513187414561759
0.5554434564361861
0.56694830866562
0.6004482531737507
0.6836795439713342
0.8849953489448537
1.053020413972625
1.08097950825107
1.063582834995442
1.025726098698556
1.005343085466941
1.00040298988046
1.000004404456878
1.000003451858992
1.000003275465364
1.000003184391886
1.000003196238439
1.000003365604746
1.000003535910498
1.000003499929403
1.000003328940591
1.000003138033693
1.000002997589653
1.000002904059047
1.000002842535513
1.00000280003619
1.000002769622781
1.000002749818089
1.000002741594208
1.00000274373301
1.000002748975511
1.000002748829476
1.000002743383849
1.000002769485894
1.000002782478733
1.000002735614716
1.000004329783492
1.000020541929211
1.000030863312144
1.000157756078283
0.7569001499941892
0.9999949213403846
0.9996509756046633
0.9965495812210639
0.9836006190252773
0.9475012926800683
0.8711770014934792
0.749578759187738
0.6141339011936562
0.5131020537176074
0.4619764566955558
0.449455863197264
0.4461858490029889
0.4463231316722423
0.4517935323421871
0.463500491253793
0.47972617425307
0.4988032894375817
0.5193798721666969
0.5403942641834928
0.5609920149011057
0.5803912699070671
0.5976607063724657
0.6113533924314717
0.6210434743408138
0.6305229788082046
0.639033008405951
0.6469737263759936
0.654318903551687
0.6610884289348876
0.6673126245524751
0.6730282835119415
0.6782739763845256
0.6830887948342768
0.6875107190373082
0.6915741872868485
0.6953149844864243
0.6987634235105639
0.7019442355545006
0.7048857935539359
0.7076044424196747
0.7101064971079422
0.7123882651699597
0.7144361674614952
0.7162398723604315
0.7177889802271571
0.7190682092353365
0.720066789762961
0.7207677480941066
0.7211529067471564
0.7211910482892888
0.7208489257375809
0.7200896371209559
0.7188668322188161
0.717127304129662
0.7148036361082369
0.7118216250307431
0.7080899821966933
0.7035958967649634
0.6972858997986473
0.6886732079109819
0.6794695742101344
0.6668211762277558
0.6510432119778119
0.6331243480659579
0.6138195209153617
0.5940337731250482
0.5757476887911076
0.5617455530463186
0.5617961297911932
0.57137406713413
0.5915644696066749
0.6518503451440889
0.7813825939410635
1.013486127365758
1.088482905823872
1.080831255335213
1.044106467982457
1.012563066565765
1.001571663310766
1.000034444973202
1.000003276576182
1.000003362289723
1.00000320704038
1.000003198545696
1.000003373272232
1.000003551555514
1.000003516267849
1.000003341313985
1.000003145958692
1.000003002167007
1.000002906419352
1.000002843677453
1.000002800547966
1.000002769835497
1.000002749886562
1.000002741528299
1.000002743494969
1.000002748695547
1.000002748995546
1.000002744553399
1.000002770039729
1.000002791414772
1.000002990842265
1.000010170431459
1.00002555513937
1.000018027143595
1.000170563240677
0.716750103149304
0.9999955046628703
0.9996769947973075
0.9968076339136646
0.9848172456981046
0.9513342056203582
0.8801342970279885
0.7648613096991043
0.6322826208161448
0.52891661765342
0.47349171470524
0.4547584995832016
0.4581574925542654
0.4605876244951995
0.4663668045941191
0.4778720861968725
0.4935771022049669
0.5120312389522621
0.531972055652293
0.5523747387642184
0.57241312252657
0.5913293780688675
0.6082261074551929
0.6217109710639849
0.6305717301593986
0.6397459567640844
0.6479932648078837
0.6557120371960092
0.6628600431392366
0.6694464828944846
0.6754954030445225
0.6810373051283177
0.6861059194675991
0.6907391067646083
0.6949727426926894
0.6988423608025139
0.7023769494020555
0.7056081806736267
0.7085607493913519
0.7112590297696617
0.713721220788037
0.7159544979089164
0.7179582722910494
0.7197256836795625
0.7212490608960929
0.7225204318279891
0.7235309283942888
0.7242696871896289
0.7247245161106957
0.7248779735775041
0.7247138897706441
0.7242045772387705
0.7233192802574591
0.7220142667649267
0.7202411192766275
0.7179379754403128
0.715037477744301
0.7114584485497206
0.7071147182875281
0.7015793260561815
0.6941445567027988
0.6851337469384365
0.6744081343942178
0.6606043582315976
0.6445501644667642
0.6270339474791417
0.6086123370881868
0.5902683747555326
0.5745666081566162
0.5678103504526315
0.5742762229474814
0.5896038222519004
0.6273744060400096
0.7237261470203932
0.9294270194803892
1.075682943175663
1.091899151724736
1.063468758748494
1.024165030736452
1.004341727253036
1.000199153647263
1.000002459117517
1.000003295137961
1.000003204202014
1.000003204634552
1.000003381050256
1.000003566961668
1.000003532931969
1.00000335424962
1.000003153640758
1.000003006413932
1.000002908700169
1.000002844791108
1.00000280098038
1.000002769894283
1.000002749701125
1.000002741147469
1.000002742898917
1.000002747986436
1.000002748228231
1.00000274618598
1.000002774349566
1.000002887467661
1.000004211266534
1.000015205346787
1.0000213548849
1.000012395870607
1.000190691180569
0.6419619383083826
0.999996242196404
0.9997098931268963
0.9971304903180875
0.9863494877250032
0.9561860848101797
0.8916150539724532
0.7850828940064769
0.6577130419546366
0.5528528469075552
0.4930726632797039
0.4698273852749245
0.4740617910497862
0.477863351623947
0.4833509019084229
0.4941538044701149
0.5090950820188282
0.5268235320663265
0.5460972801114687
0.5658852597155101
0.5853342682702892
0.6036590128804207
0.6199122799767781
0.6326704304870275
0.6415513517432559
0.6505465726417111
0.6586884018541711
0.6663002331632064
0.673343181715825
0.6798237503666797
0.6857638158686968
0.691194993475277
0.6961518451683824
0.7006700344348328
0.7047831347614869
0.7085269409406442
0.7119309725317838
0.715024718681208
0.7178316958467709
0.7203736092950671
0.722669263431657
0.7247285909453595
0.7265531200928934
0.7281390126634751
0.7294845854961135
0.7305802720183601
0.7314199933022245
0.7319911201189642
0.7322790924243743
0.732266477543607
0.7319291828303079
0.7312388275493035
0.7301611218002805
0.7286574206517846
0.726682746197012
0.7241861630090028
0.7211075266152905
0.7173845616106429
0.7129526063268852
0.7077183408372404
0.700992608976138
0.6919552491091863
0.6820939428680467
0.6698332757224473
0.6550485871858894
0.6387263197545456
0.6214819059468705
0.6038951891696959
0.5875585771627019
0.5753869839352498
0.5773997172526592
0.5908980118340388
0.6164988645162376
0.6902111415169656
0.8390507048725765
1.053966289156451
1.10619208270894
1.086745193742841
1.040083408558043
1.009496895590158
1.000775247448618
1.000006192249642
1.000003411345795
1.000003239790513
1.000003208259198
1.00000339107319
1.000003585480386
1.000003552175825
1.000003368997776
1.000003163172889
1.000003012054079
1.000002911744347
1.000002846318977
1.000002801579351
1.00000276983648
1.000002749348307
1.000002740588224
1.000002742201272
1.000002747078828
1.000002747960778
1.000002749804777
1.000002820248993
1.000003404763958
1.000008669049237
1.00001757061911
1.000014295908529
1.00000894176744
1.000216688242061
0.8061186346744178
0.9999968062255559
0.9997350523565928
0.997377426852983
0.9875201946994717
0.9599071669851875
0.9005175747871957
0.8012482984160537
0.6792797664827809
0.5748147555366052
0.5124975141402351
0.4867842500723232
0.4900603459269641
0.4930118947377075
0.4974131325966522
0.5072476192435489
0.5213504926737427
0.538353410224902
0.5569884513917611
0.5762041240552747
0.5951315792620241
0.6129817553197755
0.6288170468928583
0.6412532780458259
0.6499501763814166
0.6588160923707513
0.6668322115862888
0.6743283863938699
0.6812639785041544
0.6876392693173786
0.6934727603494912
0.6987938108205966
0.7036340780189371
0.708030982907785
0.7120159986288536
0.7156243047814934
0.7188842379665782
0.7218225105810926
0.7244643350825732
0.7268291086883738
0.72893532395867
0.7307947944634747
0.7324115601184124
0.7337890748149491
0.7349224761485338
0.7358099614838121
0.7364419180276431
0.7368110807943334
0.7369043045972897
0.7367039303639877
0.7361899409746383
0.7353343940541922
0.7341051690306687
0.7324611033588339
0.7303573750063186
0.7277444661739759
0.7245666311314849