/*--------------------------------*- C++ -*----------------------------------*\
| =========                 |                                                 |
| \\      /  F ield         | OpenFOAM: The Open Source CFD Toolbox           |
|  \\    /   O peration     | Version:  v1812                                 |
|   \\  /    A nd           | Web:      www.OpenFOAM.com                      |
|    \\/     M anipulation  |                                                 |
\*---------------------------------------------------------------------------*/
FoamFile
{
    version     2.0;
    format      ascii;
    class       volScalarField;
    location    "0.00000067";
    object      betaFieldInversion;
}
// * * * * * * * * * * * * * * * * * * * * * * * * * * * * * * * * * * * * * //

dimensions      [0 0 0 0 0 0 0];


internalField   nonuniform List<scalar> 
44064
(
1.428464948891919
1.425390617844741
1.398453980621978
1.294689286474017
1.07927033310239
0.9325511068782375
0.998928956563472
0.9282396652821566
0.5945769671936226
0.5482634738871872
0.5251679919674141
0.5061444212254419
0.5371197765811579
0.5828970182663733
0.6376262108997222
0.7028650585206118
0.773919068680783
0.8403274001230926
0.8937253774777715
0.9304149113226822
0.9571495916748337
0.9732956396151591
0.988845605841343
1.002123089031254
1.010928601088766
1.02119165630188
1.0305996272314
1.032403870758944
1.048022927353153
1.069418978097022
1.092489343969888
1.116091458845082
1.13635835102552
1.152506171879244
1.173092726799252
1.189477438405684
1.20927269527971
1.231843250864573
1.258401051169705
1.293145319733916
1.328641607440661
1.367666990663596
1.420111083226341
1.477831336877716
1.538009569943977
1.603731579222707
1.662377588356311
1.670047712960142
1.595654620645324
1.486668392725432
1.417628224894571
1.396845427393487
1.400777074631878
1.411975346187144
1.422063128217943
1.427968654118745
1.429764507771067
1.429350848431279
1.428507583302378
1.427991714962674
1.428000645573523
1.428357419612613
1.428507946172416
1.428482904058483
1.428533190721049
1.428551057264335
1.428515737973573
1.428528623096952
1.428535647594484
1.428535135033787
1.428535501251657
1.428535911349117
1.428536161534196
1.428536376954817
1.428536541927765
1.428536645612331
1.428536728147869
1.428536847790336
1.42853702955513
1.428537221006987
1.428537359633891
1.428537432628399
1.428537440873181
1.428537386923351
1.428537279969015
1.428537142078296
1.428537001401025
1.428536884511427
1.428536805799876
1.42853677084527
1.428536766127045
1.428536778848237
1.428536799929143
1.428536820332142
1.428536837458769
1.428536848949514
1.428536853634183
1.428536853905456
1.428536854475386
1.428536855984185
1.42853685682051
1.428536852845082
1.428536847974599
1.428536847126626
1.428536850328913
1.428536827541997
1.428537442368588
1.754491455998707
1.428524258412529
1.427975581432269
1.423038748126239
1.402686248955268
1.348528461558288
1.248495730152357
1.136279867761294
1.086450886195522
1.071435985068325
1.007525001961399
0.9235212532302002
0.9251222751150285
0.9769134897210291
1.026695154577999
1.089559654164854
1.129640948601104
1.147686828747117
1.175503662721408
1.19898634606302
1.2242545847435
1.235571247455781
1.239902591575851
1.238139674966364
1.230617494222152
1.28540611388868
1.30706010255611
1.328233246304399
1.345402618870669
1.360494959778364
1.373420930995964
1.384462478117432
1.393834367340237
1.401679456987144
1.408141782517158
1.407365660634005
1.413573344480758
1.414745561438335
1.432988873868276
1.448213927813991
1.457025489246493
1.472411716650145
1.496908599601185
1.524520708891086
1.554325429122432
1.587486050736498
1.626936600145453
1.672244779094168
1.727043556278486
1.798378365501856
1.865162975140594
1.938863234663959
1.989109708633422
1.986881583716896
1.867973492425991
1.682079266180652
1.599784689931689
1.561082409954741
1.535649701347982
1.512496500723207
1.4827601361136
1.454217356085237
1.433824341720777
1.425430206814762
1.425017928763578
1.426735612623104
1.427838444797284
1.428379309288002
1.428544256139519
1.428508883344761
1.428533047008056
1.428535716228777
1.428535495421293
1.428535852172634
1.428536210134771
1.428536435801111
1.428536573599653
1.42853667002988
1.428536808978857
1.428537037120096
1.428537286899712
1.428537470689695
1.428537571363677
1.428537590516056
1.42853753082882
1.428537402253949
1.428537231258696
1.428537052393091
1.428536899428376
1.428536794612111
1.428536739725994
1.428536737224763
1.428536757039616
1.428536779776753
1.428536805638208
1.428536831318794
1.42853685148688
1.428536862324388
1.428536864849226
1.428536866628706
1.42853687099448
1.42853687412684
1.428536864621233
1.428536852306777
1.428536849930113
1.428536857202652
1.428536806652493
1.428540946974479
1.51088973142049
1.428525291630738
1.428021494522145
1.423480124047195
1.404589609104635
1.352653379460274
1.247161164294605
1.096297666517061
0.9750280076240002
0.9448660373347467
0.9344896782336967
0.9025234895732008
0.807888301158504
0.808830960384968
0.8667342412977368
0.9333473631898819
0.9827743937457265
1.020964388228032
1.045002612164694
1.086815742953688
1.112224564426308
1.134204375860714
1.144077648203435
1.135296694397436
1.188744800755317
1.211403013306717
1.235425086324458
1.264975896226991
1.292661017846032
1.31693792483624
1.339113128127199
1.359600490460273
1.378753233970219
1.396898147263547
1.414348249934982
1.431423956274214
1.448469004566345
1.465852724320839
1.483968733055467
1.503241637552507
1.52404139630638
1.552012084096095
1.577538856776724
1.597803922537744
1.626160437426888
1.661387245002992
1.703234841926518
1.752179010063473
1.802886186454268
1.865892761965742
1.938290765961069
2.019072040803187
2.101001118667071
2.190695477827926
2.26777061888029
2.299499838426505
2.25506050906807
2.174229177320046
2.008955464708095
1.834839277477923
1.714153789115997
1.614438008066017
1.527836893734721
1.462702539063255
1.425576044405753
1.413262126182895
1.416908665211236
1.424099149278598
1.427613378057481
1.428504958209275
1.428526978170997
1.42853541098215
1.428536260101125
1.428536343779752
1.428536507737433
1.428536626348654
1.428536691430059
1.428536727524371
1.428536789848388
1.428536919537313
1.428537079123016
1.428537206866161
1.428537286815857
1.428537317914204
1.428537299073383
1.428537231473673
1.428537127065855
1.428537006344223
1.428536894097128
1.428536810258892
1.428536762681905
1.428536749727541
1.428536760039657
1.428536781092635
1.428536806290523
1.428536831149844
1.428536850426893
1.428536860922367
1.428536863575907
1.428536864936387
1.428536868923854
1.428536871873897
1.428536863158641
1.42853685202395
1.428536849732935
1.428536857689525
1.428536823879747
1.428549171854567
1.380137170627164
1.42852792894123
1.428139086538254
1.424629914658124
1.409941820511762
1.368581756477176
1.278249384702375
1.122068135494565
0.9215601409093856
0.7519236822531512
0.6641997627641367
0.6311167930823808
0.6309833273281832
0.6032659343760572
0.6358036119523923
0.684171666111612
0.7305940036480353
0.7782085481414913
0.8259286111596118
0.8699704678537572
0.9001846099367764
0.9117176907260115
0.9269855611241341
0.9993555327969734
1.026370146772153
1.046620004213947
1.067069728941784
1.089489268585958
1.115641634427687
1.140129063007673
1.163122558584651
1.184893529440547
1.205716667973058
1.225861540001342
1.245574590840075
1.265066638589714
1.284512998773732
1.304040596604694
1.323712660949155
1.343515970816962
1.363348778253564
1.383008028763687
1.402245172792243
1.420921959896572
1.438372893965057
1.451012707723495
1.467450655100021
1.48618910150219
1.507274920136422
1.531263087007458
1.560871182656314
1.586940780975626
1.621258699719432
1.667371159625341
1.728979023034232
1.811652357400075
1.92096306730218
2.032853544947444
2.086246662625135
2.023668839516624
1.90135137717513
1.773781273836939
1.66757861519487
1.558905662996741
1.467231486241847
1.408120714670453
1.389987174599594
1.401288863320709
1.418480708612815
1.426784012903601
1.428471541386455
1.428534014237752
1.428535854509686
1.428536265249838
1.428536461847959
1.428536603200892
1.42853668019189
1.428536718802122
1.42853678128305
1.428536916040579
1.428537082332413
1.428537211848386
1.428537288892864
1.428537314496243
1.42853728996296
1.428537218646045
1.428537114229671
1.428536997742899
1.428536892583962
1.428536816842448
1.428536775630534
1.4285367652938
1.428536774296779
1.428536792189627
1.428536813031204
1.428536833090934
1.428536848507207
1.428536856363632
1.428536858276021
1.42853685976566
1.42853686351308
1.428536866493754
1.428536859679917
1.428536850819808
1.428536849168565
1.428536858636521
1.428536819188584
1.428561826487482
2.028527814829408
1.428529796642465
1.428222399777826
1.425447381275464
1.413811624244846
1.380817624382449
1.307211523660761
1.172925540635828
0.9792752165254791
0.776983757116445
0.6372355327539208
0.575090403764299
0.5611029348670858
0.5849189213057386
0.596890065114432
0.6307697191064416
0.6732783450013594
0.7222288613497522
0.77708535765124
0.8349912236647461
0.887870706460603
0.9320323732406219
0.9860063705181003
1.017039615933844
1.014881088110087
1.028540600702133
1.043366310211294
1.061087785021914
1.08195113057712
1.102090224088103
1.120712465424873
1.137697529916685
1.153118538403967
1.167062929261017
1.179619017070246
1.190873945669746
1.200889755734128
1.209689845911975
1.217279506407261
1.223645352267412
1.228723707048867
1.232372805860639
1.234348469176606
1.234343951506722
1.23146094890205
1.224204885416283
1.220097426078561
1.214613429815393
1.200517977219612
1.182756514221539
1.166845926101167
1.156541290058878
1.153509200076435
1.164474661955669
1.177411227326801
1.211735516802923
1.278339972600912
1.385206007807789
1.526638261026583
1.695428423222972
1.853097445921077
1.868763498966074
1.773013861542276
1.660914075661634
1.551740543795485
1.447296769897455
1.37990055295936
1.365520352527104
1.390735147763391
1.417303979823921
1.427212661381483
1.428505186379692
1.428536004000368
1.428536184720215
1.428536418647129
1.428536579218148
1.42853666554366
1.428536702542647
1.428536764542395
1.428536914668496
1.428537106833069
1.428537256895663
1.428537345177003
1.428537374409798
1.428537347667859
1.428537268905913
1.428537152798305
1.428537022916355
1.428536905145506
1.428536819948587
1.42853677332977
1.42853676068002
1.428536769394159
1.428536788184332
1.428536810305612
1.428536831641397
1.4285368481504
1.428536856765846
1.428536858745918
1.428536860151529
1.428536864002949
1.428536866947411
1.428536859477476
1.428536850494193
1.428536849277775
1.428536868461705
1.428536662191828
1.428577226243935
1.185001762457723
1.428531096502226
1.42828038445176
1.426016699156849
1.416516179613845
1.38947857410776
1.328479457704916
1.213913596668999
1.037607322062091
0.8291596369863027
0.655311160082654
0.559428031438277
0.5333453511078177
0.5640965889376718
0.5797848058362667
0.5746086822204427
0.5923109910924755
0.6249727686537121
0.671176574096589
0.7260333802645003
0.7831522216217732
0.8344637823802603
0.8759549211895711
0.9279090494562846
0.9370893868873862
0.9565344176212927
0.9722038589926187
0.9880042370518238
1.005212401696896
1.023231096584694
1.039278392271757
1.053195144886788
1.064964903169534
1.074586603427699
1.082050221228773
1.087315459951846
1.09031053234767
1.090914684882768
1.088942429783309
1.084181539099484
1.076278577650562
1.065338368838728
1.051011239360983
1.033454158695909
1.013544417564821
0.9889471158015263
0.9652463955540487
0.9347106976520612
0.8975175231162222
0.8609708652420336
0.8251997216782835
0.7909860152646979
0.7593415744282714
0.7306700119624633
0.6980889168742699
0.6621414043220534
0.6414971769358716
0.6696316195881227
0.7493981287544482
0.8757078456488043
0.9897965534579867
1.22032899163472
1.48165563158047
1.580243340258786
1.556055630705499
1.47843673617776
1.403967549437926
1.356249541674192
1.360404773657111
1.396220143940481
1.421547381049272
1.428060907262859
1.42853372526456
1.42853609268468
1.428536371470602
1.428536573243519
1.428536663344433
1.428536693654838
1.428536752863154
1.428536912437238
1.428537123102978
1.42853728872319
1.42853738621192
1.428537419033055
1.42853739147236
1.428537307900207
1.42853718345789
1.428537043479805
1.428536916124829
1.428536823329659
1.428536771786002
1.428536756741694
1.428536764940083
1.428536784372524
1.428536807608717
1.428536830081949
1.428536847550352
1.428536856710849
1.428536858861109
1.42853686035258
1.428536864438927
1.42853686755719
1.428536859577527
1.428536850430213
1.428536849136967
1.428536891988619
1.428536072657073
1.4285992999126
0.8218626947387075
1.428531430695036
1.428295291314739
1.426163032157094
1.417210662362985
1.39169458079002
1.333862496980834
1.22395432216834
1.050281952765949
0.8341659161284949
0.6384470617380082
0.5168949390893818
0.4702310055207968
0.4746558377643202
0.5185289164075945
0.5303477920613422
0.5543639137444846
0.5894438514299641
0.6350127914864401
0.68677564391422
0.7407012327676407
0.7865820799563533
0.8213580722274206
0.8593585572627824
0.8962005564559078
0.9219719305949232
0.9399508244353896
0.9549895922064828
0.9688225310273881
0.9845563998658793
0.9982356224731886
1.009614900569418
1.018620983130691
1.025188203225275
1.029229632189242
1.030625432737534
1.02924860171232
1.024973466923395
1.017642389631203
1.007063451236001
0.9930190526615154
0.9753530865309332
0.9539494662704089
0.9289155455411728
0.9003462068744669
0.8677459187894789
0.834491189050632
0.7923204581375468
0.7474574942333708
0.7114129128005747
0.6682917762609319
0.6226721661456857
0.5756600876745848
0.5230611938730545
0.471203521237257
0.4103175137668948
0.3400876484820192
0.3010532498244305
0.2931267612618654
0.3108699455496083
0.356485926786928
0.4821369902834443
0.7149723575522737
1.004816512776248
1.233372363926403
1.374092687812594
1.3996060156219
1.373369813485359
1.354246866381897
1.376289867259892
1.4109308869439
1.426321562346458
1.428471553029649
1.42853624407112
1.428536353648467
1.428536541899734
1.428536647447437
1.428536685942192
1.428536745310272
1.428536912998975
1.428537138190425
1.428537314832655
1.428537417931449
1.428537452437078
1.428537423201177
1.428537334693868
1.42853720324571
1.428537055892423
1.428536921912809
1.428536824566689
1.4285367708934
1.428536755083051
1.428536763173117
1.428536782746813
1.42853680624327
1.428536829023639
1.428536846728903
1.428536856018133
1.428536858199918
1.428536859751435
1.428536863927181
1.428536867085067
1.428536858886668
1.428536850525253
1.428536848604693
1.428536936967636
1.428534729112912
1.428624369903631
0.8059348122224732
1.428532003301525
1.428320834852207
1.42641398861771
1.418406714545457
1.395570076369871
1.343705280146617
1.244545873202815
1.085355744151807
0.8799332395698408
0.680843045980957
0.5445124480307796
0.4844435908134536
0.4816064781620358
0.5251085551634513
0.5428261027816521
0.5539726876704214
0.5804520358439751
0.6190520380422224
0.6642574633917459
0.7094675655695819
0.7486888004190593
0.7721923776016121
0.7920321587408375
0.8627385430021041
0.8964425079917153
0.9185779691306237
0.9343956989496647
0.9456222526414598
0.9598569740668778
0.9719064337918274
0.9815775380677305
0.988866619250627
0.993780479717675
0.9963180102366125
0.9964598365858987
0.994133496747147
0.9892242659941193
0.9816056159049515
0.9711291839558542
0.9576408193099389
0.9410215591419671
0.9212323112226167
0.8983082065656781
0.872326737782799
0.8433883874825895
0.8116114153284517
0.7773077667976548
0.7383908052078163
0.691980399202641
0.6446060804763004
0.5872126060156763
0.5250226759840884
0.4599315241571741
0.3897170934928613
0.320878759087638
0.2540847558577328
0.1991668692070652
0.1515001159987874
0.1032375465438822
0.08144314563250225
0.07446945218776238
0.1261160465997554
0.326819809958212
0.6836060833673974
1.217141443371357
1.150678467806658
1.307856391065127
1.355794101038584
1.372864338136627
1.401802555473918
1.423022062014056
1.428207860992782
1.428534997069108
1.428536367151741
1.428536537169765
1.428536646109041
1.428536677754701
1.428536732126077
1.428536902177498
1.428537136637313
1.428537322041704
1.428537430758707
1.42853746810575
1.42853743927534
1.428537349009417
1.4285372142762
1.42853706293088
1.428536925564469
1.428536825546036
1.428536769984904
1.428536753301008
1.42853676129974
1.428536781222187
1.428536805169673
1.428536828311801
1.428536846269545
1.42853685569348
1.42853685782638
1.428536859305291
1.428536863443706
1.428536866527936
1.42853685784629
1.42853685180827
1.428536847171625
1.428537004519371
1.428532628888449
1.428664029379879
0.8088464527035383
1.42853268838574
1.428351397651794
1.426714315724174
1.419839261142558
1.400225202067969
1.355628647432237
1.270065560635856
1.131356499899865
0.9480810034801613
0.7618042859071377
0.6244627950821106
0.557731140267964
0.5531707730130586
0.6001788371908243
0.6123590750120068
0.6179620722750193
0.642761700766888
0.6791264698321046
0.7254032850295707
0.77524751244201
0.8190478230222816
0.8529862782452721
0.8875684723310004
0.9253380927716357
0.9537726868011337
0.9744749371605357
0.9901064611237499
1.0001226012603
1.013810181764716
1.025812604779159
1.035833901523027
1.043843316588944
1.049838686361565
1.053827134982343
1.055809959323649
1.055767434889047
1.053646923517962
1.049364319079802
1.042810978668017
1.033850399362196
1.02234090896559
1.008177286330854
0.9913059522770172
0.9717039859841845
0.9493409718688001
0.9241427478323559
0.8960232819465606
0.8649349675692376
0.8309183324316494
0.7939998796909334
0.7531725021638611
0.7108086907470341
0.6528712992860037
0.5805779731740925
0.4941531330789977
0.4313971732867189
0.3398932439399144
0.2450896865791161
0.1664325321516206
0.08517849196271066
0.04793374790282032
0.03883352714595618
0.03973708198098841
0.1161443651917873
0.3917989662867178
0.6825337506015763
0.9737239327209515
1.222742318346753
1.359816358033737
1.402461533766988
1.421534657152708
1.427840128241521
1.428522188759457
1.428536378649494
1.428536519694639
1.428536634116384
1.428536668714762
1.428536718079742
1.42853688986177
1.428537132277671
1.428537323958829
1.42853743673388
1.428537476810079
1.428537449048393
1.428537358083938
1.428537221111305
1.428537066742048
1.428536926100479
1.428536823635181
1.42853676701052
1.428536750164765
1.428536758558547
1.428536779113532
1.428536803821501
1.428536827788417
1.428536846427841
1.428536856174356
1.428536858306321
1.428536859765177
1.428536863955619
1.428536867209572
1.428536857028046
1.428536856187826
1.428536843741117
1.428537070776513
1.428530449923587
1.428706726557185
0.8153026057894854
1.428533006103333
1.428365571742419
1.426853585752204
1.420503227854468
1.402378821043857
1.361117403485551
1.281680125952287
1.15180032715359
0.9769290390492464
0.7926967832130842
0.6485898000959635
0.5704934110072063
0.5550290605111106
0.5877343490070337
0.6121506487930812
0.6210120952296634
0.6457543670647118
0.6813837723722841
0.7264641693586584
0.771717983716701
0.8122908790497915
0.8629812378834716
0.9119029546232905
0.9297836138936303
0.953453882401046
0.9705206316106818
0.982159296415765
0.9868728876316271
0.997416365757205
1.008442244418115
1.018612279481988
1.027668943029821
1.035491222387225
1.042015422448749
1.047204088874604
1.051031750308498
1.05347068574229
1.054481158654366
1.053982676327904
1.051847417720268
1.047959049794029
1.042252933866014
1.034655286298411
1.02510878991047
1.013602654855461
1.000089918980682
0.9844721305059025
0.9666365244133888
0.9464923859102125
0.9240326915064226
0.8993095739248338
0.8721638507548591
0.8419821933515687
0.8072029074280282
0.7666763480093319
0.7198545010070908
0.6579268408571702
0.5489783522815621
0.4186427187053401
0.2906028317219999
0.1758281794010773
0.06077641754274825
0.04046004027947843
0.03904421660557505
0.07241258970215567
0.2862523159383852
0.611940609038773
0.8393042067838428
1.209781668350297
1.38232286507742
1.424851756097161
1.428768845257158
1.428561907606189
1.428536284360598
1.428536532532706
1.428536637889658
1.428536664536408
1.428536713488312
1.428536884610141
1.428537126405379
1.428537318323106
1.428537433289552
1.428537475985399
1.428537449748864
1.42853735851392
1.428537220094109
1.428537063799158
1.428536921582154
1.42853681798223
1.428536760871495
1.428536744544773
1.428536754168627
1.428536776243505
1.428536802422596
1.428536827625004
1.428536847162209
1.4285368573516
1.428536859467703
1.42853686090447
1.428536865211509
1.428536869147103
1.428536856018883
1.428536865965404
1.428536838181343
1.428537095251966
1.428529735020853
1.42875788452776
0.8564614278259745
1.428533231688836
1.428375635816344
1.426952481932354
1.420974847563552
1.403909910435032
1.365030429419193
1.290029368891648
1.166835033323359
0.9993584645712718
0.8197756005329241
0.6753447822014433
0.5935583575333399
0.5730595811917996
0.604242741062236
0.6271087008500342
0.6347561655882732
0.6568422890370736
0.6887361778776221
0.7283148050645453
0.7695455752048604
0.803499211893611
0.8253726800206072
0.8446326708412544
0.910951944932385
0.9457593080245837
0.9691270622714945
0.9841698913505825
0.9906802824672328
1.000910477953087
1.011403863401003
1.02078173679207
1.028929272260871
1.035819499649935
1.041442446711419
1.04579520442228
1.048873437215872
1.050638281648728
1.051003953902646
1.049880202789305
1.047178827427227
1.042827894953673
1.03681102399931
1.029157592759526
1.019963332660458
1.009364142583732
0.9974703715611323
0.9843440506493486
0.9700036455995804
0.9544987851950493
0.9379710363325576
0.9206806802736074
0.9029899148305217
0.8851736902853318
0.8669150830296587
0.8462775656155889
0.8330873312047392
0.8669645423305119
0.7741973778285954
0.5692129674935635
0.4075699011755746
0.25446764495302
0.1344485440249847
0.05690545190754354
0.03543398181456139
0.03802362550738415
0.054353155671638
0.3031314109140602
0.5992854912639435
0.8646800230275342
1.242345261078337
1.407682066788138
1.431823092130069
1.429088377592595
1.428543408351999
1.428536477305488
1.428536611055656
1.428536656386825
1.428536709636606
1.428536888181518
1.428537139570721
1.428537337135686
1.428537455401104
1.428537499517177
1.428537471992609
1.428537376453198
1.428537231699025
1.428537068723695
1.42853692052431
1.428536813041787
1.428536754598858
1.428536738677646
1.42853674964101
1.428536773325168
1.428536801092655
1.428536827708157
1.428536848297798
1.428536858938852
1.428536861012505
1.428536862371516
1.428536866557218
1.428536872115802
1.42853685415085
1.428536880944031
1.428536833211004
1.428537066854547
1.428532728071256
1.428806775607738
0.9200788598937205
1.428533557930805
1.428390190291152
1.427095504880708
1.421657045847895
1.406126512638443
1.370707500714725
1.302188489478078
1.188822109636453
1.032117675498256
0.8584432511817318
0.710793808077003
0.6193398364669802
0.5886140958393965
0.6089320567936474
0.6483913422277158
0.6733895928459857
0.6833548999478115
0.708995461435848
0.7439068281282878
0.782001414514651
0.8172838970605873
0.8628871218723061
0.9071050114132335
0.9206769219117197
0.9394345888368512
0.9519062061620759
0.95807818525716
0.9568248723826738
0.9597437524067221
0.9671077348274916
0.9746521203091173
0.9817058070198799
0.9879090493392563
0.9930250703214459
0.9968804550537774
0.9993198344306713
1.000237920479771
0.9995670910500654
0.9972067023991332
0.9930412612528849
0.9870128816915599
0.9791731478776491
0.9696765988257138
0.9586039732600889
0.9459333833630684
0.9315966408595112
0.9154587603966712
0.8973644007812227
0.8771568121910494
0.8547319268043516
0.8300774444816071
0.8033229161969224
0.7746943215825786
0.7429431784751074
0.7074897117682787
0.6704745519063215
0.6527411343741026
0.5159225329653441
0.3856074385575233
0.2797438598530042
0.2121305211660738
0.0951952186033873
0.0461199118350858
0.02701425210764614
0.03026965620097225
0.0381250479430109
0.08558280686398999
0.341819695229033
0.6310331585417771
0.9495903478870087
1.308193664189352
1.423284433838964
1.430247414191584
1.428629149732675
1.428535777566762
1.428536599758171
1.42853664920404
1.428536701642722
1.428536887059823
1.428537149042603
1.428537355103746
1.428537478405984
1.428537523847381
1.428537494799157
1.428537395158734
1.428537244463077
1.428537074966924
1.428536921268355
1.428536809999347
1.428536749776023
1.428536733888865
1.428536745965164
1.428536771132277
1.428536800329325
1.428536828171034
1.428536849612677
1.428536860670012
1.428536862796906
1.428536864144798
1.428536867839529
1.428536876729843
1.428536852846044
1.428536898608001
1.428536833235021
1.428537059316337
1.428544402955692
1.428862461142146
1.005070931569929
1.428533840192819
1.428402782685203
1.427219247169991
1.422247319859913
1.408044967700112
1.375626128693001
1.312765182771895
1.208201641533743
1.062048520768396
0.8967083731096712
0.7513995209505223
0.6566327649491733
0.6195943277753645
0.6285681967406912
0.674511531232057
0.6974115090544063
0.7152921798125403
0.7423556218702565
0.7739977844763848
0.8042131115268162
0.8272740010524572
0.8537668663433489
0.9307536475039989
0.9468919497946429
0.9662703196267168
0.9772107152578081
0.9803336166218669
0.9753180296089061
0.9735332612844899
0.9788487268413276
0.985134299468051
0.9915131753912818
0.9975230456444267
1.002863215146237
1.007335078342615
1.010796990655061
1.013096551331758
1.014044855578743
1.01345727498324
1.011147569123292
1.006943212680901
1.000734366873147
0.9924657178697195
0.9821568583141942
0.9698328020679118
0.9554286776888864
0.9387701890719644
0.9196042315240786
0.8976909644157475
0.8727830189788852
0.8444822744521191
0.8122860023610655
0.7756538471865078
0.7337289950594722
0.6886940306401141
0.6307717791290099
0.5805898360817793
0.4805251182166984
0.3675864739935593
0.251854516044679
0.1537377730577153
0.08668805852377957
0.04908489025520348
0.01983556972113265
0.01313876158383627
0.02246094514939124
0.04012229400045758
0.1558806078935037
0.4039088293331957
0.7715459315183344
1.103121178443801
1.367966795473818
1.425452948847424
1.428600244581373
1.428538301720291
1.428536461909029
1.428536634390488
1.428536691440229
1.428536881849721
1.428537152245278
1.428537362959104
1.428537490109037
1.428537539512058
1.428537512005973
1.428537410429889
1.428537255289226
1.428537080615011
1.428536922164129
1.42853680763244
1.428536745978546
1.428536730194211
1.428536743251949
1.428536769664497
1.428536800080615
1.428536828973357
1.428536851113372
1.428536862396666
1.428536864552074
1.428536866064999
1.428536868630489
1.42853688333778
1.428536852429713
1.428536912072723
1.428536840132334
1.428537186914571
1.428579274535694
1.428934671002896
1.018082147705794
1.428534210732056
1.42841931331355
1.427381696324733
1.423022361134818
1.410565451398442
1.382099049216696
1.326735369616639
1.233968253635101
1.10221440046506
0.948484057973065
0.8062442651569539
0.7060883001313342
0.6602722073716325
0.6615197187152779
0.7092729253363951
0.7341056514532398
0.7516995665995116
0.7665290960783488
0.7885961048198038
0.8106864412332089
0.825580866256114
0.9046937689879208
0.9204300234116498
0.942809902804122
0.9561328158934265
0.9611612891348255
0.958294597595049
0.9479264620754017
0.9402373545275096
0.9449789205682947
0.9516740737049689
0.9590046446607201
0.9663059286076238
0.9731167398535874
0.9790902750878967
0.9839652828252839
0.9875476030882594
0.9896979068254758
0.9902896616340005
0.9891909083409999
0.986316498682498
0.9816613363632611
0.9752745341752735
0.9672140593136084
0.9575037184620784
0.946069560000059
0.9327386118725005
0.9172749215990018
0.8993890923363224
0.8788167555771508
0.8553978919282587
0.8288799141946781
0.7988576195670525
0.7643305391840334
0.7220937084389436
0.6716178175962045
0.6041499477329261
0.5217208041896156
0.417115231431556
0.3012710384505035
0.1926978073246299
0.1113928964819095
0.05936249516583948
0.02830310726347573
0.01313682370543545
0.007651428821557042
0.02515762387303115
0.05616677062703524
0.2839605769622483
0.5654237923469821
0.8580676892154941
1.252546327824518
1.396497043398152
1.42569693695702
1.428454461638188
1.428536143802378
1.428536613279993
1.428536680717287
1.428536881038995
1.428537164555916
1.428537384821286
1.428537517239507
1.428537567924095
1.428537538394311
1.428537431864783
1.428537269834823
1.428537087838537
1.428536923249518
1.428536804734047
1.428536741488929
1.428536725941186
1.428536740189311
1.428536768035641
1.428536799739561
1.428536829618085
1.42853685236518
1.428536863843509
1.428536865887666
1.428536867795249
1.428536868211093
1.428536891240143
1.428536852907018
1.428536913547313
1.428536851613412
1.428538050937073
1.428648086941849
1.4290015290034
0.8763419048891655
1.42853460193377
1.428436765971609
1.427553210735471
1.423840779353125
1.413228401389162
1.388948263459435
1.341580670598065
1.261657909259911
1.146528770615452
1.008655275568931
0.8755563048678181
0.775884684837739
0.7250899988230557
0.7211622456917295
0.7622778047044585
0.7983388858149668
0.8194750077088044
0.8362545841072786
0.8359203005795242
0.9137868803815199
0.9546595996268896
0.9727017054116517
0.9676387852902995
0.9770492602116496
0.9824153709817153
0.981495341618007
0.973766091744045
0.960310676743351
0.9482315130710799
0.9514867941118518
0.9580198814732952
0.9654532462757648
0.9730032226643478
0.9801841551603513
0.9866668148209073
0.9922121318537648
0.9966411550138696
0.9998093039962065
1.00156977442317
1.001785710221596
1.000350154658347
0.9972312278298644
0.9924589484999458
0.9860720786756354
0.9780769683727543
0.9684073310892665
0.9569177002062188
0.9434334185630097
0.9277553034914394
0.9095737807604577
0.8884858333894218
0.8639904320763379
0.8354056532000106
0.8018273274722637
0.7620045383942575
0.7135110811702032
0.6556282414823674
0.5945114199083077
0.4856078115294644
0.3698609769395463
0.2560789934507388
0.1604445373678731
0.09382495179225342
0.05284735923761311
0.02454020492117726
0.0110346095575964
0.007269007519942105
0.0323316937519452
0.1386187835626962
0.4401249044362052
0.7114240754510669
1.06675590364285
1.327184391568236
1.411405513827113
1.42741614273683
1.428521956745372
1.428536597114064
1.428536670784839
1.428536883502431
1.428537179368522
1.428537406365724
1.428537543178518