/*--------------------------------*- C++ -*----------------------------------*\
| =========                 |                                                 |
| \\      /  F ield         | OpenFOAM: The Open Source CFD Toolbox           |
|  \\    /   O peration     | Version:  v1812                                 |
|   \\  /    A nd           | Web:      www.OpenFOAM.com                      |
|    \\/     M anipulation  |                                                 |
\*---------------------------------------------------------------------------*/
FoamFile
{
    version     2.0;
    format      ascii;
    class       volScalarField;
    location    "0.00000067";
    object      k;
}
// * * * * * * * * * * * * * * * * * * * * * * * * * * * * * * * * * * * * * //

dimensions      [0 2 -2 0 0 0 0];


internalField   nonuniform List<scalar> 
44064
(
1.907448338600444e-07
5.299190806954735e-06
3.494849256669167e-05
0.0001227569245766699
0.0003104462260723878
0.0006376251593349412
0.001120699188380726
0.001732306420758762
0.002401301786613415
0.00304557674923242
0.003621002088627303
0.004117503205334189
0.004530225686054003
0.004862594400680361
0.005122697599836877
0.00532028569502701
0.005465004730710562
0.005565498677987071
0.005629037200720334
0.005661463256207067
0.005667324487777373
0.005650102198029122
0.005612434049514498
0.005556334417254668
0.005483347943007405
0.005394663286401439
0.005291217144522276
0.005173758371072346
0.005042899355807097
0.004899225162075285
0.004743332742313479
0.004575858701194578
0.0043975265421735
0.004209213290046243
0.004012020017688646
0.003807227832300646
0.003595801488456947
0.003378252377575476
0.003155256959630308
0.00292767520748636
0.002696537645199329
0.002463025455038931
0.002228444678766929
0.001994540383243977
0.001764457564235148
0.001541516927232944
0.001328008767459056
0.001125962829878373
0.000937227930414291
0.0007638427589295982
0.0006079260594402772
0.0004712762419186655
0.0003549925591279683
0.0002592313874023818
0.0001831190554431505
0.0001248444415652282
8.194327998937406e-05
5.154030574151813e-05
3.081303950666161e-05
1.733941033219123e-05
9.130377575791087e-06
4.502193182793217e-06
2.09903301877894e-06
9.458743601381828e-07
4.30682272843788e-07
2.151855068465236e-07
1.306157440981925e-07
9.948950421990282e-08
8.876266734377725e-08
8.530867157439218e-08
8.427196753992393e-08
8.398266977938765e-08
8.390780528713057e-08
8.388985921501269e-08
8.388586445426778e-08
8.388501912741691e-08
8.388482297186512e-08
8.388474692059475e-08
8.38846887512092e-08
8.388463054243848e-08
8.388456965678463e-08
8.388450601699934e-08
8.388443996296353e-08
8.388437195528395e-08
8.388430265092383e-08
8.388423217121382e-08
8.38841613598554e-08
8.388409107133039e-08
8.388402294802875e-08
8.38839483716588e-08
8.388388827482711e-08
8.388383463487318e-08
8.388377070447624e-08
8.388371518640299e-08
8.388366711330771e-08
8.38836229817651e-08
8.388357056285048e-08
8.388353913929786e-08
8.388352039150068e-08
8.388349981216883e-08
8.388348476586611e-08
8.388347600840321e-08
8.388347644928682e-08
8.388461136709953e-08
8.43278815625015e-08
2.045173562390122e-07
2.428971636095313e-05
0.002801585481035234
3.408240673268706e-08
9.468863453117099e-07
6.245796962224201e-06
2.199140189891018e-05
5.617498555291975e-05
0.0001184830038639365
0.0002194216213946347
0.0003679365197158392
0.0005675699841813331
0.0008129378358383283
0.001089377562648155
0.00137754593271549
0.001660452858855189
0.001927161403571895
0.002172758337318778
0.002395842434506626
0.002595793567206939
0.002773074560616105
0.002929010942590338
0.003065336220755048
0.003184240453206965
0.003287140010861527
0.003375053565429967
0.003448775767049511
0.003508841534678809
0.003555902987007994
0.003590802380173512
0.003614500610630312
0.003627370137171894
0.003629648401407394
0.003621450215681922
0.003602784603724606
0.003573572696150955
0.003533666098722025
0.003482865652127072
0.003420883560676591
0.003347459839014189
0.003262275280267516
0.003165154887557947
0.003055957422194359
0.002934540939098514
0.002800873646989698
0.002655105165666508
0.002497568887058803
0.002328805705527576
0.00214958056694207
0.001960903456864011
0.001763999255853365
0.001560222426534174
0.001351844599380729
0.001142640106540663
0.0009384047901000268
0.0007458238633711981
0.0005711932835436165
0.0004197340409788848
0.0002945250230772164
0.0001963225048708594
0.0001239744592769093
7.425931969378252e-05
4.215966672415072e-05
2.241974824815133e-05
1.09831820876799e-05
4.943544420144611e-06
2.075165207558084e-06
8.411532375997637e-07
3.502219783101681e-07
1.664737162904709e-07
1.013488300536618e-07
7.950464974969807e-08
7.259571023620523e-08
7.054408624263874e-08
6.997415125311018e-08
6.98263742161561e-08
6.979049439662378e-08
6.978204581704952e-08
6.977974744449791e-08
6.977865822699224e-08
6.977772300959388e-08
6.977673457249427e-08
6.977565578273502e-08
6.977448124307094e-08
6.977321154251152e-08
6.977184897839831e-08
6.977039696102472e-08
6.9768860453758e-08
6.976724546181007e-08
6.976555737649084e-08
6.976380416168641e-08
6.976199908776107e-08
6.976014238434002e-08
6.975823299504841e-08
6.975636821385621e-08
6.975451614187686e-08
6.975265722962238e-08
6.975079443299395e-08
6.974892615073299e-08
6.974716176202927e-08
6.974577953948913e-08
6.974456696222112e-08
6.974354710096653e-08
6.974277324423078e-08
6.974230130802169e-08
6.974222026665355e-08
6.975073017295972e-08
7.210770249159495e-08
5.482290184986031e-07
6.956751963491486e-05
0.005231325150186865
2.624560814056909e-08
7.291650255554026e-07
4.809984461795028e-06
1.694136467424884e-05
4.331849295987384e-05
9.158694044662043e-05
0.0001704300487199283
0.0002881104166138064
0.0004496244612454712
0.0006534050451448829
0.0008897945597759215
0.001143154230269637
0.001396889092325046
0.001638897279093391
0.001863427845230661
0.002068700508460056
0.002253511967509647
0.002417907744296363
0.002562824895699052
0.002689783952658962
0.002800517858763639
0.00289680416380443
0.002980258532700439
0.003052314564961293
0.003114268612161107
0.003166770398318028
0.003210311848434103
0.003245454277779897
0.003272676930065432
0.003292207967662298
0.003304153334370637
0.003308505684639891
0.003305153608473151
0.003293891164765501
0.003274427712974726
0.003246397992115251
0.003209373128267763
0.003162871499555667
0.003106370969859222
0.003039319665647242
0.002961145431743567
0.002871332007455915
0.002769355470637931
0.002654636959200188
0.002526674094937706
0.002385065185739783
0.002229547434557008
0.002060066698227244
0.001876763400906789
0.0016802649391695
0.001472182808271565
0.001255846146606919
0.001036634217163282
0.0008225129225473704
0.0006235974579732651
0.0004494389619929022
0.0003063444552731406
0.0001970644180814454
0.0001199006793232865
6.930625352917093e-05
3.80570152857986e-05
1.957408614669766e-05
9.218242890128362e-06
3.93352144753469e-06
1.548375375123982e-06
5.902673317604473e-07
2.380512446358246e-07
1.167929976360711e-07
7.731138479080938e-08
6.514064293192096e-08
6.159904003334972e-08
6.063011335023827e-08
6.038166996520989e-08
6.032185963267397e-08
6.030795761365314e-08
6.030434803675583e-08
6.03028079007316e-08
6.030158608967173e-08
6.030033825220108e-08
6.029900126881822e-08
6.029756390654914e-08
6.029602416359751e-08
6.029438216936583e-08
6.029263911888458e-08
6.029079750461714e-08
6.028886067992609e-08
6.028683301396295e-08
6.028472008497044e-08
6.028253329543757e-08
6.028027334312352e-08
6.027793535894614e-08
6.027568572191944e-08
6.027341804487763e-08
6.027111205408925e-08
6.02687760844778e-08
6.026641789705589e-08
6.026414879048154e-08
6.026222515380118e-08
6.026049218944787e-08
6.02590012739688e-08
6.025782935261702e-08
6.02570627987446e-08
6.025688400280961e-08
6.02842688666642e-08
6.665764359954594e-08
1.15838974494497e-06
0.0001298250168432158
0.007352884617201777
3.897042942527183e-08
1.082688844436772e-06
7.141834598349495e-06
2.515028396773961e-05
6.426970893257294e-05
0.0001356588866358068
0.0002514925004870716
0.0004219968917182163
0.000650137189781731
0.0009266970711743964
0.001231176616745903
0.001539613142806878
0.001833185012715851
0.00210243020405832
0.002345781984242
0.002561803313315534
0.002750929044786683
0.00291495410474613
0.003056382853442264
0.003177937473777448
0.003282246876402742
0.00337171829547485
0.003448565214389571
0.003514855566433501
0.003572298472689451
0.0036222130416265
0.003665483111179522
0.003702538993043544
0.003733727046191796
0.003759300244936921
0.003779420588555434
0.003794158264399344
0.00380349131989005
0.003807296179734472
0.00380533283520889
0.003797245523628529
0.003782580680769935
0.003760793671598886
0.00373125077840386
0.003693234211953981
0.003645949824948641
0.003588537809983789
0.003520087098713904
0.003439660908083449
0.003345796906297191
0.003236772291153961
0.003110846506369648
0.002966775647750078
0.002803596510116405
0.002619515217146967
0.002413126441964668
0.002182992956916594
0.001928702308509326
0.001651666701700579
0.001356490783558385
0.001053751827973702
0.0007621587728329796
0.0005052057606104861
0.0003034712812535842
0.000165001493486523
8.255988093368947e-05
3.90092419126005e-05
1.748399938275222e-05
7.269162968445519e-06
2.764347883892921e-06
9.87404501165013e-07
3.553649066267266e-07
1.462504848881054e-07
8.066887234396432e-08
6.108206807603608e-08
5.552324542498292e-08
5.403088246328896e-08
5.365359575642291e-08
5.356383068457282e-08
5.354332047123967e-08
5.353825941735453e-08
5.353632490268049e-08
5.35349061438203e-08
5.35334918766208e-08
5.353198896921874e-08
5.353038101068753e-08
5.352866495117644e-08
5.352684053851476e-08
5.352490870842333e-08
5.35228718710695e-08
5.35207336532672e-08
5.351849803866724e-08
5.351616989250394e-08
5.351376128726797e-08
5.351127570617347e-08
5.350870980891332e-08
5.350620169833619e-08
5.350367039325514e-08
5.350110118827245e-08
5.349850610024814e-08
5.34958972677847e-08
5.349337148703631e-08
5.349116082070747e-08
5.348917492124909e-08
5.348747088644762e-08
5.348613250109292e-08
5.348526342352609e-08
5.348522517740824e-08
5.355321273281372e-08
6.692358303944739e-08
2.012124534278944e-06
0.0001864385325744347
0.008134014725708016
4.653323591416483e-08
1.292799272669544e-06
8.527603916051976e-06
3.002634652487373e-05
7.669558283297147e-05
0.0001617007046403444
0.0002990447084884731
0.000499610810204487
0.0007645213857745357
0.001079802409306496
0.001419254390336728
0.001755434819224587
0.002069669121942913
0.002354880309138806
0.002609832247921197
0.002834007018676076
0.003028813264201739
0.00319694392989322
0.00334169131050149
0.003466463956125306
0.003574499373745755
0.003668732608974827
0.003751746839770833
0.003825631872681473
0.003892001963386769
0.003951733153074321
0.004005445312625874
0.004053662004040367
0.004096814539700791
0.004135240552538399
0.004169188715088455
0.004198824291994465
0.004224235199148755
0.004245439556478978
0.004262396892065476
0.004275005908580428
0.004283090957888609
0.004286403972491278
0.004284639952170092
0.004277465172981632
0.004264530369269019
0.004245433774994761
0.004219696151765517
0.004186783134904325
0.004145270104423562
0.004093275991735206
0.004028049338675216
0.003946247845735832
0.00384409563087223
0.00371725608445282
0.003560637861352557
0.003368327115208488
0.003134296424572108
0.002855104149266614
0.002534842047809755
0.002187235383917791
0.001812167152895452
0.001417594956267642
0.001022771756476198
0.0006605131280021351
0.0003700147400553133
0.0001759955658793957
7.137313199535175e-05
2.536571372886729e-05
7.996898345190914e-06
2.284299865443529e-06
6.453931716261704e-07
2.072429648715018e-07
9.076385114599778e-08
5.957412625148966e-08
5.129422999394958e-08
4.915864410360739e-08
4.863169985227226e-08
4.850834001562995e-08
4.848064294097943e-08
4.847410523809218e-08
4.847185098619894e-08
4.847032934001868e-08
4.846884844912677e-08
4.846728291097442e-08
4.846561072662204e-08
4.846382766540051e-08
4.84619329663188e-08
4.84599271326579e-08
4.845781152868222e-08
4.845558839687897e-08
4.845326664891216e-08
4.845084984419575e-08
4.844834702917099e-08
4.844576297417418e-08
4.844309536246148e-08
4.844046245375913e-08
4.843779981322685e-08
4.843509766249857e-08
4.843237140249577e-08
4.842963644447531e-08
4.842698024831656e-08
4.84246241423979e-08
4.842251571914866e-08
4.842071149302695e-08
4.841929974066128e-08
4.841839598736052e-08
4.841869577812842e-08
4.855585502122611e-08
7.232408420695567e-08
3.138758184959259e-06
0.0002536910158220253
0.009896908124292092
6.44445640289185e-08
1.790411678166655e-06
1.180933668823675e-05
4.156839398151041e-05
0.000106060869534229
0.0002229850888771813
0.0004099820314707771
0.0006780497342482939
0.001022292138815002
0.001417488100209479
0.001826783400184361
0.002218092096686243
0.002574468858175733
0.002892970054398915
0.003173131011472701
0.003416072824454359
0.003624784155860065
0.00380330035932643
0.003955998010092281
0.004087143215890773
0.004200654602075666
0.00430000711772538
0.004388198712772859
0.004467669827479704
0.004540275154264578
0.004606869923399103
0.004668162243246977
0.004724760764478251
0.004777185685603524
0.004825875047815842
0.004871188089971427
0.004913410977787885
0.004952760996793639
0.004989389309088799
0.005023382564931021
0.005054763680582971
0.005083492262003524
0.00510946535551939
0.005132519367918271
0.005152434308233508
0.005168965692081589
0.005181581295614245
0.005189598797674199
0.005191890624316677
0.005187087136177856
0.005173776671142123
0.005150459392055425
0.005115177893133137
0.005064961030300938
0.004995520042393838
0.004901370870075149
0.004776121288345747
0.004612611513147121
0.004402972956557481
0.004138702907123734
0.003811678385805513
0.003414023635011465
0.002942090408791002
0.00240708753072661
0.001856082095871538
0.0013381506590064
0.0008686629937307913
0.0004840949028308397
0.0002226079199887314
8.210840835094939e-05
2.369141923835928e-05
5.187749271456657e-06
9.406009065934987e-07
1.918419540623754e-07
7.026340135158858e-08
4.950542624359108e-08
4.557414705590198e-08
4.476160116428125e-08
4.458761242530576e-08
4.455037145585409e-08
4.45420256370065e-08
4.453943496129412e-08
4.453784752805675e-08
4.453634851229661e-08
4.453477349094565e-08
4.453309403849463e-08
4.453130482216857e-08
4.452940475349157e-08
4.452739410976019e-08
4.452527394649958e-08
4.452304644350111e-08
4.452072239617691e-08
4.451830321526764e-08
4.451579684054123e-08
4.451320873053547e-08
4.451053728695666e-08
4.450788619680991e-08
4.450520234127118e-08
4.450247916849561e-08
4.44997339040039e-08
4.449698341905164e-08
4.449430761120887e-08
4.449191214031547e-08
4.448977250961081e-08
4.448794687852887e-08
4.448652589595151e-08
4.448563046863339e-08
4.448649412718283e-08
4.472582645776252e-08
8.26856362616576e-08
4.623087561580993e-06
0.0003430320808918462
0.01275877082996978
8.537491744640357e-08
2.371896724085715e-06
1.564382389610471e-05
5.504604289664234e-05
0.0001402747656591027
0.000293983817697041
0.0005370293739024547
0.0008785117671927333
0.001304300956649231
0.001775817191317037
0.002246414707892062
0.002682367771902385
0.003071048542174535
0.003412873035709084
0.003708591390586025
0.003961466157325969
0.004176343473269081
0.004358646601543325
0.004513724239272852
0.004646509808678249
0.004761388655617184
0.004862165160642382
0.004952038416299949
0.005033555366131704
0.005108414711193244
0.005177505170594421
0.005241587627020677
0.005301322004279247
0.005357283392899126
0.005409974096154957
0.005459826840641922
0.005507211388263593
0.005552439594174939
0.00559576900942941
0.005637405315997929
0.005677503896461006
0.005716170858366655
0.00575346380695775
0.005789394385696538
0.005823934588595927
0.005857024311848045
0.00588857967738571
0.005918508501380352
0.005946739137818466
0.005972814310127642
0.005995834830044494
0.006013765985192286
0.006023563397711041
0.006021912638496269
0.006005694270591419
0.005971778723548003
0.005916206465776954
0.005833476004717655
0.005716404250452004
0.005556098366484616
0.005341614764168422
0.005059371247874101
0.004692950396307539
0.004225142828366816
0.003645161091550817
0.002961093805432781
0.002241905838496317
0.001579803917312615
0.001012069324757316
0.0005624859594682119
0.0002549276371264847
8.940786819470122e-05
2.250216991852687e-05
3.811549630542297e-06
5.087519736836383e-07
9.282454450939518e-08
4.696265159250366e-08
4.204568346171929e-08
4.148555551287814e-08
4.14108987957445e-08
4.139844643528104e-08
4.139532558251866e-08
4.139366730231938e-08
4.139216584605069e-08
4.139060043492349e-08
4.138893415003002e-08
4.138716038156896e-08
4.138527781911982e-08
4.138328665145863e-08
4.138118792345077e-08
4.137898358479119e-08
4.137668403379814e-08
4.137429097835351e-08
4.137181182794378e-08
4.136925257515048e-08
4.136661226711531e-08
4.136398358030626e-08
4.136132180070328e-08
4.135862266855776e-08
4.135590449899445e-08
4.135318481605247e-08
4.135053726219725e-08
4.134815325526335e-08
4.134602806171217e-08
4.134422083380944e-08
4.134282331880401e-08
4.134195854333529e-08
4.134363524802517e-08
4.172334998662439e-08
9.863659129090264e-08
6.649032898490451e-06
0.0004679771987004834
0.01653623971318235
9.859949203147206e-08
2.739300191642616e-06
1.806632334806267e-05
6.355470646157802e-05
0.0001618227901038365
0.0003384440173745908
0.0006157633877497105
0.00100094562320668
0.00147396928358942
0.001989202325658639
0.002495687306892739
0.002959531996957916
0.003370156395797664
0.003728443329339792
0.00403626889919874
0.00429797524155807
0.004519234717437356
0.004706090774467418
0.004864351733723081
0.004999291757813071
0.005115552105510036
0.005217136594852162
0.005307391384703013
0.005388970745675946
0.005463659253891651
0.005532400453165574
0.005595995656034825
0.00565513773267823
0.005710432461387937
0.005762417009723364
0.00581156297627047
0.005858284124862108
0.005902942427586802
0.005945852540913071
0.005987285017334098
0.006027468534956695
0.006066591397821567
0.00610480259137005
0.006142211066448668
0.006178882112795034
0.006214834078595706
0.006250036639858663
0.006284408339735746
0.006317812443663674
0.006350050342771226
0.006380858542730039
0.006409935649939337
0.006436793066047108
0.006460332898744025
0.006478580635869994
0.006487917888551919
0.006483876311423874
0.006461783661975694
0.006416608211444484
0.006342038271585408
0.00622969982785854
0.00606894273611627
0.005846598987350803
0.00554647711295078
0.005148875398041817
0.004631843301705528
0.00397843291049234
0.003192141403840233
0.002359422349530935
0.00161335290880532
0.00100242414240616
0.0005344125833831445
0.0002253328802592338
6.924622346661454e-05
1.375631036014234e-05
1.738774313796792e-06
2.00217386104856e-07
5.252206907852125e-08
3.990966700780455e-08
3.890681142712848e-08
3.882819516061444e-08
3.88205723248106e-08
3.881861131434725e-08
3.881710198410124e-08
3.881555439091002e-08
3.881391056336958e-08
3.881216189876606e-08
3.881030678902264e-08
3.880834532414936e-08
3.880627859194285e-08
3.880410832148751e-08
3.880184416153073e-08
3.879948839332203e-08
3.879704805232501e-08
3.879452949750966e-08
3.879193229315096e-08
3.87893405081353e-08
3.878671594174504e-08
3.878405602920445e-08
3.87813798377462e-08
3.87787052842417e-08
3.877610099291031e-08
3.877374653997444e-08
3.877165177529095e-08
3.876987639821782e-08
3.876851286556896e-08
3.876768339415858e-08
3.877042962334276e-08
3.933446720092923e-08
1.214102735519352e-07
9.490509195814222e-06
0.0006438584994305401
0.02115577125441531
9.319097113128745e-08
2.589042044548354e-06
1.70754615732439e-05
6.007180641378689e-05
0.0001529832751773268
0.0003201313411786652
0.0005831830903617349
0.0009502842431766878
0.001404753869273038
0.001905316828432671
0.002403413596556402
0.00286407605966414
0.0032740320363789
0.003633785960356069
0.003944416452227051
0.004209549337226139
0.004434334999856034
0.004624503652101914
0.004785717078890012
0.00492323247089227
0.005041759977774249
0.005145399440303801
0.005237523265320045
0.005320772202784092
0.005396499958734027
0.005465719224943082
0.005529295116306153
0.005587977251328941
0.005642421617615787
0.005693214557329854
0.005740875829222091
0.005785867378290351
0.005828600294889358
0.00586943990415307
0.005908709217216534
0.005946690946628125
0.005983628262653327
0.006019724451899406
0.006055141633083349
0.006089998676134704
0.006124368462645694
0.006158274625168875
0.006191687863178767
0.006224521863709006
0.006256628801952037
0.006287794160870518
0.006317714172376588
0.0063459625300128
0.006371964699606633
0.006394981959631875
0.006414125312485343
0.006428417669559305
0.006435940604373438
0.006433765912427132
0.006417008089598096
0.006379079525292686
0.006311645249224759
0.006204099293463408
0.006043367608502112
0.005813605051865833
0.005495496829178157
0.005066112309369311
0.004501968567555658
0.00378819494651868
0.002940502377814409
0.00208992931482296
0.00137658788164076
0.0008026148550517778
0.0003811681855489038
0.0001329579626826789
2.984564010370144e-05
3.893166084122269e-06
3.756517017736236e-07
6.222276176699418e-08
3.841932487248306e-08
3.677943094100606e-08
3.667455755903935e-08
3.666706873136399e-08
3.666528505856795e-08
3.666374555159425e-08
3.66621268904921e-08
3.666040648373264e-08
3.665858204376927e-08
3.665665356226997e-08
3.665462214990099e-08
3.665248938516584e-08
3.665026420641053e-08
3.664794941186242e-08
3.664555173271853e-08
3.664307776737604e-08
3.664052747261048e-08
3.663797798821486e-08
3.663539627290346e-08
3.663278099797195e-08
3.663015170836442e-08
3.662752654861152e-08
3.662496994140103e-08
3.662265152013533e-08
3.662059224323314e-08
3.661885174569952e-08
3.661752411121124e-08
3.661672629661197e-08
3.662081506080035e-08
3.742213528929734e-08
1.532273991792966e-07
1.356361147343136e-05
0.0008875908154516348
0.02660203635066199
9.27218041016487e-08
2.57600757861075e-06
1.698948784366433e-05
5.976922734313883e-05
0.0001522127008146205
0.0003185265210706654
0.0005803250971828456
0.0009459343303373791
0.001399255061426247
0.001899763202681219
0.002399135673873604
0.002861834103562964
0.003273809120358715
0.003635409273749511
0.003947507849473023
0.004213704637736312
0.004439164503718059
0.00462962919856716
0.004790756213423924
0.00492777694142643
0.005045355264241429
0.005147549807276741
0.005237744867174394
0.005318593232630277
0.005391640597155621
0.005457843769282442
0.005518021100850437
0.005572880928238001
0.005623042404218335
0.005669063252095975
0.005711441137198572
0.005750620821125248
0.005787001336632765
0.005820941787419787
0.005852765762099734
0.005882764416130768
0.005911198278235406
0.005938297821806071
0.005964262835124729
0.005989260605776744
0.00601342295833944
0.006036842225204379
0.006059566180948407
0.006081591871178147
0.006102858317287985
0.006123238023286428
0.006142527051108368
0.006160433620705607
0.006176565344179512
0.006190415095890709
0.006201345369688414
0.006208570319993304
0.006211130250737386
0.006207816775453515
0.006197126046029426
0.006177085313715982
0.006143920889592264
0.006091947631670043
0.006011960451532985
0.005891293204877335
0.005713962931538078
0.005460413276159305
0.005107250124866506
0.004627969016925759
0.003997938470910714
0.003214550698239605
0.00236230541558968
0.001589980548208194
0.0009620922966937053
0.0004832324415763066
0.0001768398891197309
4.069915100924822e-05
5.17989730540545e-06
4.519220841508016e-07
6.332099694497215e-08
3.659543281436883e-08
3.493715170369188e-08
3.484250303777984e-08
3.483630457011368e-08
3.483458286125994e-08
3.483298058104054e-08
3.483128767901719e-08
3.482949335602426e-08
3.482759716976875e-08
3.482560035491453e-08
3.482350435576052e-08
3.482131743135419e-08
3.481904282270066e-08
3.481668705365474e-08
3.481425689392736e-08
3.481175261677811e-08
3.4809245682951e-08
3.480670724434213e-08
3.480413689500958e-08
3.480155451115069e-08
3.479897828144605e-08
3.479646905951331e-08
3.479418806991808e-08
3.479216498373374e-08
3.479045849372322e-08
3.478916612829981e-08
3.478839480145783e-08
3.479413855295236e-08
3.58998560639754e-08
1.975179426936896e-07
1.943471139134293e-05
0.001213282363238347
0.03267360234732909
9.108455654344394e-08
2.530521693645391e-06
1.668953756105404e-05
5.871499115123746e-05
0.0001495378063641975
0.0003129879309042116
0.0005704791607563782
0.0009306418511417251
0.00137841150988187
0.001874653386476206
0.002371864504141641
0.002834150838165828
0.003246455385448237
0.003609081710358353
0.003922635795300437
0.004190481698670327
0.004417608960731042
0.004609630271281399
0.004772102617109239
0.004910169442474221
0.005028412883080659
0.005130813717686581
0.005220715153364268
0.005300778972083719
0.005372880346931229
0.005437991455052171
0.005496924930942645
0.005550371004610304
0.005598923107530553
0.005643107440597895
0.005683387865770512
0.005720173455934894
0.005753826274471828
0.005784667758668971
0.005812983788878744
0.005839028566939155
0.005863027386151364
0.005885178319629221
0.005905652849178767
0.005924595472404229
0.005942122258387915
0.005958318309870342
0.00597323409070625
0.005986881665138157
0.005999232854607453
0.006010215650987117
0.006019706554387424
0.006027521601288058
0.006033406023972577
0.006037022509855046
0.006037937994450934
0.006035608909420824
0.006029364870123201
0.006018391011388847
0.006001705016450486
0.005978118380302074
0.005946180020359956
0.005904030251534935
0.005847280178205283
0.005769007727096064
0.005658564454541728
0.005501493755014859
0.005279270687395365
0.004968803735892664
0.004542875462203672
0.003974578639453418
0.003253550609083924
0.002425272209363683
0.001639639742704905
0.001001972493883075
0.0005053627907787936
0.0001805965982560081
3.856980201429696e-05
4.353190814164496e-06
3.444834384468702e-07
5.236797345606437e-08
3.432026468090294e-08
3.33126989416147e-08
3.326045065543419e-08
3.325664581578924e-08
3.325498142469503e-08
3.325331042159708e-08
3.325154326174055e-08
3.324967654492961e-08
3.324771109149532e-08
3.324564845984853e-08
3.324349653809522e-08
3.324125887965913e-08
3.32389417424956e-08
3.323655202525489e-08
3.323409027360225e-08
3.323162322574943e-08
3.32291255134621e-08
3.322659744750909e-08
3.322405904878914e-08
3.322152886151656e-08
3.321906439207324e-08
3.321681931729e-08
3.321483078536493e-08
3.321315572277943e-08
3.32118972181592e-08
3.321114665290086e-08
3.321890863225319e-08
3.471469841100923e-08
2.589441805019518e-07
2.778908145648776e-05
0.001627757029201472
0.03904005598010648
8.99924252599031e-08
2.500180019551236e-06
1.648942725075946e-05
5.801114819773902e-05
0.0001477481739989485
0.0003092673752089172
0.0005638342113831752
0.0009203224072456995
0.001364563135372886
0.001858691079423428
0.002355910341576077
0.002819816114602127
0.003234210702927582
0.003599290052511757
0.003915415026134012
0.004185894850437103
0.004415716912728011
0.004610425814476517
0.004775528360155806
0.004916155031079243
0.005036912278554741
0.005141830128413099
0.005234288100769226
0.005316944108281808
0.005391395245539522
0.005458618038099898
0.005519437889940205
0.005574557338539179
0.005624578779896262
0.005670032145817213
0.005711381763124882
0.005749029066822196
0.005783319824661248
0.005814550688683834
0.005842974849215953
0.005868806809157317
0.005892226332225441
0.005913381672060817
0.005932392120824953
0.005949349861773953
0.005964321177284032
0.005977348316733838
0.005988451135359751
0.00599762570823235
0.006004838764603867
0.006010021709790816
0.006013066483940913
0.006013820350770525
0.006012079658693309
0.006007582624990964
0.006000001278096935
0.005988932795626725
0.005973890663489856
0.005954296362218583
0.005929477154820641
0.005898686608383266
0.005861142286293202
0.005816075114354479
0.005761207628324561
0.005692476881379401
0.005603257024541009
0.005484116224551064
0.005322281867000714
0.005100997363929433
0.004798760653174572
0.004389337942249512
0.003845394649921011
0.003152735886955807
0.00234598721268225
0.001574642480990868
0.0009466157146111508
0.0004572909547049708
0.0001486829353309257
2.675893423194454e-05
2.488460852663141e-06
1.868284862565089e-07
4.042714691493399e-08
3.230662269291665e-08
3.189819860218978e-08
3.187827192350145e-08
3.187596703629365e-08
3.187429621504394e-08
3.187255473351638e-08
3.187071614885215e-08
3.186878087329476e-08
3.186675028611734e-08
3.186463178219874e-08
3.186242917398177e-08
3.186014859214454e-08
3.185779701915908e-08
3.185537522812286e-08
3.18529459619264e-08
3.185048677650818e-08
3.18479985498531e-08
3.184550142767848e-08
3.184301401321125e-08
3.184059108652002e-08
3.183837993184732e-08
3.183642442968642e-08
3.183477761308695e-08
3.183355292014419e-08
3.183281707540231e-08
3.18430033842931e-08
3.383469341124739e-08
3.429434146007374e-07
3.929043945686394e-05
0.002124066124915299
0.04527934049347387
8.609323272661726e-08
2.391853037435799e-06
1.577509773998456e-05
5.550076871457444e-05
0.0001413798191212725
0.0002960796386069995
0.000540348978569001
0.000883609851907021
0.001313738581831731
0.001795707971961367
0.002284648413569448
0.002744163631919826
0.003156639674700963
0.003520958513406207
0.003837344293295034
0.004108748375209704
0.004339858042388039
0.004536035069572096
0.004702659560093692
0.004844764283909114
0.004966879013981206
0.005072981827692616
0.005166427458069394
0.005249934141242673
0.005325053124861531
0.00539278412143538
0.005453969086069196
0.005509324395906985
0.005559466307825374
0.005604939746907765
0.005646227837112324
0.005683750331628797
0.005717869704574939
0.005748896946336029
0.005777097566533627
0.005802696857824994
0.005825883418681179
0.005846811943867387
0.00586560535815237
0.005882356406081469
0.005897128743875177
0.005909956277524571
0.005920841757409164
0.005929756295266988
0.005936638648904109
0.005941394070645741
0.005943892764722015
0.005943968032581041
0.005941414230612956
0.005935984726757086
0.00592738989510921
0.005915288683279674
0.005899278380255322
0.005878895269420208
0.005853626920613126
0.005822925891686673
0.005786209145188484
0.005742877503001375
0.005691507923641938
0.005629332554576599
0.005551864151842859
0.005452607136936171
0.005322715293495783
0.005150379788829454
0.004919910830732403
0.004610745766177369