/*--------------------------------*- C++ -*----------------------------------*\
| =========                 |                                                 |
| \\      /  F ield         | OpenFOAM: The Open Source CFD Toolbox           |
|  \\    /   O peration     | Version:  v1812                                 |
|   \\  /    A nd           | Web:      www.OpenFOAM.com                      |
|    \\/     M anipulation  |                                                 |
\*---------------------------------------------------------------------------*/
FoamFile
{
    version     2.0;
    format      ascii;
    class       volScalarField;
    location    "0.00000067";
    object      k;
}
// * * * * * * * * * * * * * * * * * * * * * * * * * * * * * * * * * * * * * //

dimensions      [0 2 -2 0 0 0 0];


internalField   nonuniform List<scalar> 
44064
(
8.91456123650964e-07
2.476437550434011e-05
0.0001630522422762906
0.0005668529630094818
0.001383649557017772
0.002621790454352899
0.004055285489368184
0.005398879786913857
0.006527726571869884
0.007449996831441458
0.008181733233026289
0.008750803534939377
0.009187238613396521
0.009517942700038601
0.009765012106034704
0.009945807987643579
0.01007366373377364
0.01015870573490001
0.0102085878862486
0.01022908652584474
0.01022456037393751
0.01019829821037119
0.01015277918205847
0.01008986729437786
0.01001095710760517
0.009917083508112809
0.009809005076093629
0.009687268021967033
0.009552255788029608
0.009404228055679698
0.00924335193341895
0.009069727429655255
0.008883408867661893
0.008684423616904222
0.008472789332021653
0.008248530713505443
0.008011696460630477
0.007762376324452177
0.007500716668282532
0.007226930494984768
0.006941294836127392
0.006644126390214645
0.006335729443992258
0.006016325792107478
0.005686014664208395
0.005344879416703309
0.004993446257855352
0.004633731796118519
0.004270848470404365
0.003914127489766676
0.003575041239606068
0.003259167247532016
0.002956406131437032
0.002658376232767017
0.002366906974922665
0.002083957641170711
0.001811472402516857
0.001551336462590757
0.001305458470755892
0.001075823222648397
0.0008644701662666325
0.0006733997415875737
0.0005044585082063617
0.0003593179939640477
0.0002395083775260962
0.000146222707568518
7.957553576042671e-05
3.767417591310879e-05
1.548085720382554e-05
5.668488978556195e-06
1.925323325914364e-06
6.445009055529167e-07
2.423620953078427e-07
1.254886965750071e-07
9.400925340572023e-08
8.616126247782863e-08
8.435704081736284e-08
8.397542793069228e-08
8.390115354200989e-08
8.388789497712751e-08
8.388568754396147e-08
8.388527599108131e-08
8.388513291217481e-08
8.388502394698864e-08
8.388491665138712e-08
8.388480787069859e-08
8.388469943600134e-08
8.388458694665566e-08
8.388447340553686e-08
8.388437632249767e-08
8.388427785171448e-08
8.388417481223332e-08
8.388408265889484e-08
8.388399416122357e-08
8.388390979545558e-08
8.388383199504867e-08
8.388377297354647e-08
8.388369717385314e-08
8.388364662189887e-08
8.3883619995714e-08
8.388358887026768e-08
8.388356687215453e-08
8.388355570254637e-08
8.388389060676693e-08
8.409796316240811e-08
1.558834054692234e-07
1.615864509451805e-05
0.002127215789214014
5.13102855278882e-07
1.42543605623456e-05
9.390971426397647e-05
0.0003281874647986982
0.0008167138535210891
0.001615130820008409
0.002655050450284684
0.003756232733679246
0.004761082213106458
0.005614587436685454
0.006328640148423642
0.006914794304224789
0.00739045308769999
0.007774477331851305
0.008084248912445651
0.008334516477698983
0.008537248086872897
0.008701919855025445
0.008835935551490256
0.008945039590370704
0.009033672811225146
0.009105260468993515
0.009162437976921799
0.009207224910061521
0.009241158010985701
0.009265392446424785
0.009280778686669502
0.009287920717835213
0.009287220020662266
0.009278908722787643
0.00926307463105212
0.009239679985317965
0.009208575260892931
0.009169509140367566
0.009122135547453857
0.009066018486895677
0.009000635353224465
0.008925379341835675
0.00883956160239807
0.008742413774977236
0.00863309147951577
0.008510679209936081
0.008374197466444569
0.008222614296899144
0.008054865059854919
0.007869884843747533
0.007666655454931129
0.007444259692813295
0.007201916838160559
0.006938949588300697
0.006654630802039124
0.006347940362147732
0.006017502478809862
0.005662101646279723
0.00528146419100808
0.004876690036633391
0.004450298750770225
0.004006379674551542
0.003552217947388123
0.003100931447079379
0.002670789270569763
0.002276449056093695
0.001908756227774214
0.001557152446762553
0.001226813632504668
0.0009239798166600665
0.0006545274573307114
0.0004255841830657248
0.0002449359169486952
0.0001181102249321079
4.445695505945856e-05
1.276637904499758e-05
3.046827176425859e-06
6.938040890282151e-07
1.912035296273982e-07
9.195244027972295e-08
7.359359556864825e-08
7.040350911037664e-08
6.988200464366266e-08
6.980098852673631e-08
6.978813932016841e-08
6.978509478056273e-08
6.978328450845814e-08
6.978153244664907e-08
6.977969361131038e-08
6.977775666696786e-08
6.977572985349246e-08
6.97736194504171e-08
6.977141301239218e-08
6.976915992360564e-08
6.976693892362796e-08
6.976471147720858e-08
6.976245665079174e-08
6.976017946166967e-08
6.975789521570479e-08
6.975561531245151e-08
6.975336318021744e-08
6.975114524004475e-08
6.974944730641523e-08
6.974798662692749e-08
6.974678951277864e-08
6.974593440463447e-08
6.974549848696741e-08
6.974718703575161e-08
7.087837436342254e-08
4.120959202483381e-07
6.310251264319486e-05
0.005747117771340991
4.208664654781822e-07
1.169209698581566e-05
7.704687800172844e-05
0.0002696317841505062
0.0006741548597846685
0.001347551969142768
0.002252825859632011
0.003247482711555208
0.004182844633260211
0.00499130750353112
0.005673500779059732
0.006239334710717477
0.006702675129638
0.007079655296652724
0.00738588177451749
0.007635030725618723
0.007838457740753124
0.008005315838481094
0.008142868575186677
0.00825684114195919
0.008351741967650898
0.008431131334438593
0.008497831584077286
0.008554077851491735
0.008601605274377651
0.008641661084975355
0.008675080581478763
0.008702275322621959
0.008723494591093898
0.008738932064329158
0.008748731649726636
0.008752992607528034
0.008751774183516563
0.008745099981195431
0.008732962314103936
0.008715326800482544
0.008692137495964496
0.008663322908213417
0.008628803306968852
0.008588499845357518
0.00854214909140026
0.008489305743094049
0.008429298931186423
0.008361274275720509
0.008284228963588852
0.00819703433208155
0.008098451253805533
0.007987141770961343
0.007861677348228626
0.007720539439358027
0.007562103993980988
0.007384599751177114
0.007186030067228213
0.006964050646809644
0.006715810529779287
0.006437829573257451
0.006126176859549235
0.005777276673009434
0.005389154490489394
0.004962577189280098
0.004501724639427521
0.004014087603025157
0.003509796060856108
0.00300249025831374
0.002511601189525759
0.002057606967675806
0.001640783648015318
0.001252889196848202
0.0008965381592756197
0.000582663816244467
0.0003282410245589198
0.0001492550128873834
4.955173233251225e-05
1.1469144930873e-05
2.106503980400172e-06
3.841303517415781e-07
1.074902004208293e-07
6.67027055759308e-08
6.112590936923908e-08
6.041526791383982e-08
6.032935942531913e-08
6.031811122866838e-08
6.031510729678044e-08
6.031285289082222e-08
6.031055862318096e-08
6.030814914851588e-08
6.030562378167293e-08
6.030298772118257e-08
6.030022658558971e-08
6.029740981168787e-08
6.029463234056707e-08
6.029180358967166e-08
6.028890198529938e-08
6.028593670803019e-08
6.02829292538332e-08
6.027989648455595e-08
6.027687376423964e-08
6.02738788721262e-08
6.027135284631741e-08
6.026911376856088e-08
6.02672216991573e-08
6.026578295487506e-08
6.026491263998088e-08
6.02719447616138e-08
6.500380753861613e-08
1.520425362437513e-06
0.0002410530592981816
0.01502670461349744
3.34821867028769e-07
9.301772650801576e-06
6.13069633028373e-05
0.000214807073421987
0.0005394287462655891
0.001090030085628692
0.001857158330299934
0.002740391174324682
0.003607765177030347
0.004378789727697334
0.005037619643114134
0.005592232849930402
0.006052061967216258
0.006429884158922736
0.006739192727650554
0.006992455991382249
0.007200399526302731
0.007371894219877146
0.007514127290709572
0.007632871901306248
0.007732762933904123
0.007817534988425851
0.007890198680290353
0.007953133775995179
0.008008077867096836
0.008056208700877926
0.008098026413031287
0.008133947847628539
0.008164317108088518
0.00818941426076545
0.008209462414955829
0.008224633450567689
0.008235052636260592
0.008240802330715219
0.008241924937624085
0.008238425248608733
0.008230272283614202
0.008217400722636541
0.00819971199320745
0.008177075068544419
0.00814932699392196
0.008116273743039264
0.008077691943634897
0.008033332205414554
0.007982924537587331
0.007926186485085689
0.007862834864081172
0.007792488554650263
0.007714357382382287
0.007627287424279676
0.007529798517918791
0.007420152352096773
0.007296387143911008
0.007156322767855966
0.006997541578152658
0.006817358186617407
0.006612800059996151
0.006380620493468062
0.006117346788864953
0.005819340648200456
0.005482861212082169
0.005104286787513241
0.004681133045163851
0.004214312699875791
0.003710411225092135
0.003182891755629321
0.002652425167345204
0.002145302208993709
0.001684124842944927
0.001261212050721151
0.0008688375432547182
0.0005258448361444157
0.0002602112838992895
9.417515669407807e-05
2.218621605296958e-05
3.632971046522309e-06
5.361245756066649e-07
1.127071031670019e-07
6.025884999959657e-08
5.426361584925462e-08
5.362775875918021e-08
5.356345373777976e-08
5.355549520678575e-08
5.355257847657079e-08
5.354996783940563e-08
5.354725848783294e-08
5.354442343493452e-08
5.354146748317775e-08
5.353837901416323e-08
5.353521317753895e-08
5.353205324015577e-08
5.352883236372971e-08
5.352553201957323e-08
5.352216426869748e-08
5.351875375304478e-08
5.35153199030508e-08
5.351189966103328e-08
5.350851691404029e-08
5.350555579377672e-08
5.350292409398042e-08
5.350069229419598e-08
5.349897736253862e-08
5.349791900707085e-08
5.353526153302645e-08
7.409628112795019e-08
6.070453427896336e-06
0.0007361702908293612
0.02896775642062394
2.989652484038972e-07
8.305665512346177e-06
5.474658022921158e-05
0.0001919250625210397
0.0004828771010514464
0.0009802379097616793
0.001683684099888196
0.002510384780018304
0.003338640928897456
0.004084954011070661
0.004726707852442044
0.005270762933893724
0.005724416247497346
0.006098774176698977
0.006406217606272782
0.006658529186185582
0.006866032848724423
0.007037373955542106
0.007179618838213049
0.007298480456854715
0.007398568864134404
0.007483616179278001
0.007556648284274521
0.007620079863591216
0.007675699629820453
0.007724747537014986
0.007767759860249755
0.007805168144015545
0.007837333854937329
0.007864556985126822
0.007887083088410237
0.007905108999707202
0.007918787453026729
0.007928230788620158
0.007933513903874641
0.007934676578295849
0.007931725283873245
0.007924634573473026
0.007913348129053199
0.007897779538966235
0.007877812875104785
0.007853303123036011
0.007824076528155576
0.007789930916762646
0.007750636041916988
0.007705933994722272
0.007655539695998745
0.007599141445969565
0.007536402207985239
0.0074669646287357
0.007390462037231355
0.007306187473638669
0.007212964490077304
0.007109198153165722
0.006992952736447963
0.006862010302089151
0.006713897096857253
0.006545877246999383
0.006354917603968812
0.006137635185730079
0.005890249318777953
0.005608578225153192
0.005288131124357065
0.00492437297998396
0.00451330010311133
0.004052805165575183
0.003545557423114596
0.003004045315351024
0.002456434793956739
0.001937820883439691
0.001466819454202677
0.001033873166310471
0.0006407614146824321
0.0003226072946260025
0.0001161781575074761
2.581465058392407e-05
3.712199567561213e-06
4.709582279423049e-07
9.264827236579969e-08
5.276047977694015e-08
4.888075032309358e-08
4.852998030854201e-08
4.849858527961936e-08
4.849379682287598e-08
4.849093827708597e-08
4.848808701614427e-08
4.848510844272186e-08
4.848200055828089e-08
4.847875314823774e-08
4.847541133172725e-08
4.847204911479538e-08
4.846861550723834e-08
4.846509538561377e-08
4.846150268647807e-08
4.845786439981145e-08
4.845420303996169e-08
4.845055786520328e-08
4.844696157879533e-08
4.844376293903547e-08
4.844091603014503e-08
4.843849910973602e-08
4.843663805642592e-08
4.843554116662773e-08
4.858142928981471e-08
1.19156436305633e-07
1.905621543361259e-05
0.001638900409831118
0.04369388731048696
2.619586745467493e-07
7.277600933102899e-06
4.797418313759698e-05
0.000168272737934631
0.0004241774081637142
0.0008652371094791856
0.001499545450182679
0.002263319043521868
0.003048189230996856
0.003768513072846288
0.004393445125805385
0.004928398274702694
0.005378086016835442
0.005751578258194293
0.006059882005222519
0.00631392890322668
0.00652355044782012
0.006697128131348877
0.006841604309554807
0.006962651947070997
0.007064890751445694
0.007152089230083944
0.00722731566982953
0.007293004770198312
0.007350952903572264
0.007402329175479155
0.007447690306142093
0.007487508024177835
0.007522180518413755
0.007552041876445177
0.00757736980749401
0.007598391921250079
0.007615290804503318
0.007628208096236706
0.007637247728720302
0.007642478475352187
0.007643935916528303
0.007641623918752258
0.00763551570357076
0.007625554572092627
0.007611654338414282
0.007593699515380283
0.007571545294693849
0.007545017358408101
0.007513911550677849
0.007477993440749718
0.00743699779690323
0.007390627988861549
0.007338555322222062
0.007280418296703845
0.007215821716154547
0.007144335471394242
0.007065496397116261
0.006978818401585543
0.006883448425186402
0.006777954097738239
0.006660420018093714
0.006528558805060183
0.006379769595674961
0.006211144116392296
0.006019426008105262
0.00580093700155805
0.005551496221630589
0.005266378006606624
0.0049403704778225
0.004568083475072197
0.004144759554490593
0.003667977587621516
0.003141275367624008
0.002584584575348057
0.002039602734287998
0.00154079897835323
0.001082422079530462
0.0006634626647640967
0.0003220608985214427
0.0001061573396723829
2.021622984716732e-05
2.455436335050956e-06
2.822409603856469e-07
6.59393325091171e-08
4.634796819043299e-08
4.470772276885839e-08
4.457863839732242e-08
4.456697563369458e-08
4.456362642482501e-08
4.456069618971734e-08
4.455766023036568e-08
4.455449312124649e-08
4.455118475868098e-08
4.454777311878239e-08
4.454432517309474e-08
4.454080080603873e-08
4.453718743113651e-08
4.453349953007073e-08
4.452976468419084e-08
4.452600772679122e-08
4.452226823882997e-08
4.451858300469406e-08
4.451526642812011e-08
4.451231172488511e-08
4.450980073562647e-08
4.450786687528426e-08
4.450697630470961e-08
4.494901330958937e-08
2.372788972451081e-07
4.574976911887013e-05
0.002848150319531209
0.05625933660849176
2.393513431112524e-07
6.649553009854591e-06
4.383649388710523e-05
0.0001538119658153597
0.0003881906670479005
0.0007942111747413781
0.001384208470888163
0.002105698294077332
0.002859655149904662
0.003561029615222322
0.004174392438742035
0.004701725350727496
0.005147207506667245
0.005518743105610542
0.005826423505543685
0.006080577989880683
0.006290673286794233
0.006464882479232771
0.006610035234414088
0.006731747790947448
0.006834615159790631
0.006922400299188901
0.006998179948170626
0.00706441192799268
0.007122923511108204
0.007174929168652076
0.007220998347373489
0.007261615451903491
0.007297191414270245
0.007328073280912208
0.007354552087140411
0.007376869288131359
0.007395221977272173
0.007409767096562884
0.007420624804017618
0.007427881136390705
0.007431590079780638
0.007431775141594729
0.007428430499060576
0.007421521790395161
0.007410986599170365
0.007396734676154446
0.007378647936383466
0.007356580269550603
0.007330357196598264
0.007299775404845052
0.007264602192133616
0.007224574854548704
0.007179400051060463
0.00712875318360894
0.007072277827710537
0.007009585254085015
0.006940254078061204
0.006863830039885508
0.006779825411019484
0.006687724114172412
0.006586496327591108
0.006474521643561274
0.006349703929329596
0.006209574922046163
0.006051337432788417
0.005871850624891793
0.00566756222170504
0.005434402591507741
0.005167668936637611
0.004861942099045985
0.004511137488538004
0.004108944729309423
0.003650214405817726
0.003134446302906072
0.002576485889033815
0.002021051645609567
0.00150871859151952
0.001036620204072374
0.0006080708841609601
0.0002689637144326184
7.421604747308647e-05
1.114623098640947e-05
1.138611523298643e-06
1.348053355301676e-07
4.872915382334501e-08
4.195835044367814e-08
4.146432945774649e-08
4.142872374335289e-08
4.142391545434799e-08
4.142089237233034e-08
4.141783965750674e-08
4.141465914990309e-08
4.141133816222744e-08
4.140790943601775e-08
4.140443435785079e-08
4.140088077399301e-08
4.139723836157514e-08
4.139352185118304e-08
4.138975898632054e-08
4.138597560763673e-08
4.138221233609641e-08
4.13785062031352e-08
4.137514321973289e-08
4.137214675051787e-08
4.136959933696813e-08
4.136763775648557e-08
4.136746516125184e-08
4.247940395764278e-08
4.883317603942112e-07
9.183156069812658e-05
0.004323520245068399
0.06838931398666272
2.158834381191346e-07
5.997593354693779e-06
3.954066654430345e-05
0.0001387860988620517
0.0003506943054441429
0.0007197260454161329
0.001261937305364875
0.001936570526407143
0.002655742388561015
0.003336475386199341
0.003938456128614085
0.004458674730795832
0.004901008306625552
0.005271994468129391
0.00558060688642069
0.005836433155517047
0.006048495265413924
0.006224721593281961
0.006371822106849059
0.006495368171598328
0.006599953373732243
0.006689362859974029
0.006766704044077534
0.006834456377510391
0.006894465138816247
0.006947911722888441
0.006995397759900939
0.007037436017316472
0.007074462758341364
0.007106847990119156
0.007134903887085649
0.007158891677129867
0.007179027239408341
0.007195485631302303
0.00720840471996015
0.007217888069822435
0.007224007203619745
0.007226803333448979
0.007226288643152824
0.007222447187357193
0.007215235459221607
0.007204582668517553
0.007190390768627633
0.007172534264484592
0.007150859829104716
0.007125185752198896
0.007095301238865442
0.00706096558021036
0.007021907214126594
0.006977822684034641
0.006928375502533698
0.006873194908759117
0.006811874491999569
0.006743970613965214
0.006669000513036869
0.006586439581293023
0.006495717926204274
0.006396225900132493
0.006286660607933007
0.006165092084258418
0.006029132353296956
0.005876021353600934
0.00570263933596616
0.005505448406207264
0.005280369793468599
0.005022615758201387
0.004726515111298393
0.00438543460353866
0.003992084014852034
0.003539850173441786
0.00302643771005979
0.0024666149112093
0.001909316235752156
0.001395347500577094
0.0009198531297553768
0.0004958330761789311
0.0001856815576527756
3.874258896060142e-05
4.370652932654044e-06
3.972033155385604e-07
6.545743309125665e-08
4.068046499856608e-08
3.897284208572667e-08
3.886182584157397e-08
3.885270510937625e-08
3.884946236230514e-08
3.884640761133881e-08
3.884323629288232e-08
3.883992655284374e-08
3.883650679690314e-08
3.883303405015306e-08
3.882948222168229e-08
3.882584278803334e-08
3.88221306064059e-08
3.88183732417011e-08
3.881459770350356e-08
3.881084447771378e-08
3.880715010816729e-08
3.880377896326022e-08
3.880077720192673e-08
3.879822687264506e-08
3.879625519625761e-08
3.87975307666414e-08
4.113177449950537e-08
9.285867654937322e-07
0.0001555475645515668
0.005730179170169884
0.07531496674418797
2.005456762360605e-07
5.571495301041591e-06
3.67328979957656e-05
0.0001289610068093945
0.0003261351968793241
0.0006707140369783604
0.001180722210316256
0.001822680570805326
0.002516395342649501
0.003181053171907556
0.003773542249009964
0.004287507464431409
0.004726522619853203
0.005096154349566005
0.005404582066031303
0.005660856185568495
0.005873666321511631
0.006050747778050565
0.006198704739917597
0.006323054554982191
0.006428366487015906
0.006518418820352901
0.006596324398581995
0.006664580591603335
0.006725057366665224
0.00677897564739587
0.006826949795880397
0.006869504566342597
0.006907087616337691
0.006940079931907829
0.006968804424003728
0.006993532982018995
0.007014492225542688
0.007031868173879457
0.007045810010007955
0.007056433085564962
0.007063821291878197
0.007068028891678348
0.007069081894283949
0.0070669790397115
0.007061692443635689
0.007053167944110265
0.007041325188242595
0.007026057490568072
0.007007231490055557
0.006984686628901507
0.006958234475259185
0.006927657907459366
0.006892710180677467
0.006853113897200886
0.006808559895344176
0.006758706074712823
0.006703176166590268
0.006641558452554173
0.006573404416412762
0.006498227303387652
0.006415500223712752
0.006324654014634329
0.006225073756439415
0.006115546200496232
0.005994212952765567
0.005858719775514725
0.005706315152827759
0.005533866324188908
0.005337796944284121
0.005113946685776077
0.004857364932380199
0.004562073332124664
0.004220902321887344
0.003825724957866617
0.003368876985605824
0.002847493210805318
0.002283187122194445
0.001730207922126736
0.001221723714844754
0.0007517512788941189
0.0003511704803503878
0.0001005297461091229
1.450492106515407e-05
1.272920681112809e-06
1.249329288853324e-07
4.247581336430825e-08
3.705648918737502e-08
3.672551585413181e-08
3.670440385015497e-08
3.670057865821427e-08
3.669751886195913e-08
3.669437051437332e-08
3.669108690690555e-08
3.668769231446848e-08
3.668424007993247e-08
3.668070875477599e-08
3.667709132560063e-08
3.667340269316869e-08
3.666967020795476e-08
3.666592129106583e-08
3.666219663996839e-08
3.665853218214569e-08
3.665517372181789e-08
3.665218549709856e-08
3.664965234682781e-08
3.664766877348462e-08
3.665115859014181e-08
4.086568283154677e-08
1.599573822150191e-06
0.0002328994439493439
0.006964856623426558
0.08002192077794233
1.849842515144657e-07
5.139181709290295e-06
3.388390357572762e-05
0.0001189861185283814
0.0003011548941428159
0.0006206361836178626
0.001097071315127522
0.001704186087364962
0.002370226773959236
0.003017470164806769
0.003600103826089139
0.004107923147771775
0.004544132622081237
0.00491317428948587
0.005222303233649982
0.005479942100088041
0.005694393362974834
0.005873171772484434
0.006022767397551964
0.006148648195423443
0.006255372084912282
0.006346727368221354
0.006425846580909973
0.00649524453117849
0.006556808027814377
0.006611744012669583
0.006660692228915273
0.00670419959660114
0.006742733337534021
0.006776691925414853
0.006806414129982064
0.006832186441810739
0.006854249139138117
0.006872801222850303
0.006888004406460263
0.00689998631531193
0.006908843025521073
0.006914641043524214
0.006917418809483118
0.006917187795519231
0.006913933251073689
0.006907614639640161
0.006898165802256461
0.006885494880816728
0.006869484028945301
0.006849988928011244
0.006826838127398764
0.006799832227690716
0.006768742915544219
0.006733311868882016
0.006693249535615854
0.006648233791194366
0.006597908464622868
0.0065418817104998
0.006479724178876357
0.006410966896843056
0.006335098712171967
0.00625156275083164
0.006159751746345026
0.006059000558660203
0.005948161669091417
0.005825402182894438
0.005688348060078202
0.00553420498184873
0.005359768642133445
0.00516134637050507
0.004934587309055053
0.004674228172908198
0.004373787216781626
0.004025340299361801
0.003619823063091635
0.00314902124044622
0.002611975935299451
0.002045557909304076
0.001505657213390185
0.001004233930387444
0.0005487722922218499
0.0002029784573872963
3.937142818185511e-05
3.853127971976748e-06
3.023150003675587e-07
5.168256082850814e-08
3.585417604778188e-08
3.493116177475447e-08
3.487906248335332e-08
3.48737693148078e-08
3.487067227794637e-08
3.486755195760695e-08
3.486430123564261e-08
3.486093938709812e-08
3.485751671000675e-08
3.485401546139134e-08
3.485042977586141e-08
3.484677451220728e-08
3.484307660702371e-08
3.483936398346559e-08
3.483567694999951e-08
3.483205077441634e-08
3.482871561891885e-08
3.48257487124741e-08
3.482324610194243e-08
3.482123886518225e-08
3.482792233675097e-08
4.18230128143198e-08
2.601766672046113e-06
0.0003311903761252786
0.008428990133621883
0.09044519565595929
1.74273283675677e-07
4.841618672471399e-06
3.192285562097934e-05
0.0001121182325785064
0.0002839368516634801
0.0005860149787132577
0.001038874129989817
0.001620937175174286
0.00226636571540061
0.002900005357331814
0.003474499692998433
0.003977007638490737
0.004410425530223886
0.004778380850720567
0.005087452972604671
0.005345596609834564
0.005560817994152579
0.005740456077660966
0.005890902442753782
0.006017573208071504
0.006125001474730106
0.006216966636301743
0.006296603567753105
0.006366441238628112
0.006428387483992125
0.00648368671350125
0.006532989908009385
0.0065768543046368
0.006615756676356528
0.006650104452739951
0.006680244932888478
0.006706472868325129
0.006729036675620455
0.006748143504631604
0.006763963350102545
0.00677663236228194
0.006786255489009855
0.006792908549548433
0.006796639827910358
0.00679747125211928
0.006795399216984678
0.006790395091545405
0.006782405447824771
0.006771352044694029
0.006757131590927674
0.006739615305562902
0.006718648295675254
0.006694048765159043
0.006665607067530846
0.006633084614746027
0.006596212654116859
0.006554690919645966
0.006508186157007115
0.006456330517208484
0.006398719797118072
0.006334911489328634
0.00626442257184247
0.006186726936954224
0.00610125199859425
0.006007373963066959
0.005904410405051084
0.005791019255648886
0.0056652146297178
0.005524531844491478
0.005366099142587753
0.005186614565271683
0.004982225201708442
0.004748302017767199
0.004479117990102088
0.004167477587032976
0.003804514628322554
0.003380344244598679
0.002887281539299382
0.002333158413247691
0.001770437287987786
0.001246143596376569
0.0007576941026120986
0.0003401600813707635
8.731416586008852e-05
1.054024080196802e-05
7.858746159470004e-07
7.912936171311993e-08
3.586372480636094e-08
3.343457970212533e-08
3.330646612100684e-08
3.329767341987975e-08
3.329445908127505e-08
3.3291367992129e-08
3.328815444864769e-08
3.328483018696126e-08
3.328144272775486e-08
3.327797728019686e-08
3.327442894802301e-08
3.327081250202161e-08
3.326715449892846e-08
3.326348283285694e-08
3.325983766354293e-08
3.325625368931334e-08
3.325294718196421e-08
3.325000265455632e-08
3.324754202007422e-08
3.324549898540519e-08
3.325703469376037e-08
4.444754911169205e-08
4.13254513893554e-06
0.0004638003734613946
0.01037164282331387
0.1048638203831295
1.637724842508164e-07
4.549893438007287e-06
3.000015648337927e-05
0.0001053820924678304
0.0002670273305083233
0.0005519067973373952
0.000981203094644491
0.001537780594293426
0.002161838137662558
0.002781251910527
0.003347356420317323
0.003844532419629642
0.004275340548103873
0.004642537560534702
0.004951969625915449
0.005211075974281309
0.005427532981739202
0.00560848349785512
0.005760211231092371
0.005888079437499316
0.005996601400488853
0.006089556008998663
0.006170088148321014
0.006240740003951421
0.006303435558073504
0.006359421147366401
0.006409366880701507
0.006453846587941312
0.006493351574460383
0.006528302155396489
0.006559057218659494
0.006585922105902296
0.006609155077777193
0.006628972596928497
0.006645553625114792
0.006659043080630904
0.006669554587609117
0.006677172657773666
0.00668195439668683
0.006683930789493198
0.006683107617958625
0.006679466057289905
0.006672962990470894
0.006663531069789357
0.006651078554478225
0.006635488943022412
0.006616620414967154
0.006594305100861222
0.006568348189246084
0.006538526884089774
0.006504589215922403
0.006466252625733056
0.00642320233136409
0.006375089577779895
0.00632152971150544
0.006262099989375224
0.00619633703347487
0.006123733782289181
0.006043735808042741
0.005955735600792178
0.005859064319206156
0.005752962374093076
0.005635936813710464
0.005505848866785067
0.00536009432053451
0.005195647756902675
0.005009008236398046
0.004796033121001801
0.004551649816501673
0.004269459349822946
0.003941307382329999
0.003557187805164405
0.003106576358673236
0.002584028865260151
0.002020505876681755
0.001473810827046969
0.0009626217942226298
0.0004992810332839884
0.0001625752324524103
2.528256581807438e-05
1.99847002905384e-06
1.492804979780803e-07
3.827695739773737e-08
3.224142692476003e-08
3.19370251521812e-08
3.192034361304831e-08
3.191683688818159e-08
3.191376968787258e-08
3.19105942462448e-08
3.190730900079638e-08
3.190395890999885e-08
3.19005316209007e-08
3.189702296390476e-08
3.189344756538475e-08
3.188983148977653e-08
3.188620275820973e-08
3.188260085451529e-08
3.187905992884708e-08
3.187578532785269e-08
3.187286073644096e-08
3.187045304897439e-08
3.18683645763637e-08
3.188801150237667e-08
4.979453768259433e-08
6.583397696214809e-06
0.000653370025571272
0.01303123341024182
0.1228856874522316
1.569552176062985e-07
4.360501255447092e-06
2.875190202483438e-05
0.0001010084271123249
0.0002560428036932895
0.0005297141700711412
0.0009435335378793415
0.001483074469306072
0.002092354423453748
0.002701302775615898
0.003260625619107186
0.003753104908156454
0.004181080112352209
0.00454679376794434
0.004855637052283328
0.005114707226817118
0.005331443523242543
0.005512832858522448
0.005665060023980617
0.005793426821563878
0.005902408747079971
0.005995762204185554
0.006076621522484924
0.006147531924005449
0.006210429266548275
0.006266594357824165
0.006316704632887016
0.006361340769536981
0.00640100046606632
0.006436110046936617
0.00646703411847696
0.00649408354822085
0.006517522028471377
0.006537571454722506
0.006554416311729801
0.006568207248124937
0.00657906397484585
0.006587077562980819
0.006592312221046184
0.006594806647362462
0.006594575012584432
0.006591607617085841
0.006585871261509441
0.006577309359900876
0.006565841820311457
0.006551364711267401
0.006533749728678031
0.006512843474640983
0.006488466557643732
0.006460412518670812
0.0064284465889645
0.006392304366364082
0.006351690395987649
0.006306276519109233
0.006255700008067605
0.006199561483587305
0.006137422564895065
0.006068803167213512
0.005993178331556321
0.005909974050186064
0.005818561344195626
0.005718249022105547
0.00560796599210144
0.005485972609201361
0.005349971878154456
0.00519722189079243
0.005024527784240439
0.004828131177918642
0.004603478276907199
0.00434485618909582
0.00404492200664044
0.003694303588246213
0.003281957358704837
0.002798225736240476
0.002248602050298522