/*--------------------------------*- C++ -*----------------------------------*\
| =========                 |                                                 |
| \\      /  F ield         | OpenFOAM: The Open Source CFD Toolbox           |
|  \\    /   O peration     | Version:  v1812                                 |
|   \\  /    A nd           | Web:      www.OpenFOAM.com                      |
|    \\/     M anipulation  |                                                 |
\*---------------------------------------------------------------------------*/
FoamFile
{
    version     2.0;
    format      ascii;
    class       surfaceScalarField;
    location    "0.00000067";
    object      meshPhi;
}
// * * * * * * * * * * * * * * * * * * * * * * * * * * * * * * * * * * * * * //

dimensions      [0 3 -1 0 0 0 0];


internalField   nonuniform List<scalar> 
87612
(
4.298926479010505e-23
-9.484590304727666e-22
0
-1.910617074400989e-21
0
-9.690570158582546e-22
-5.921432108180588e-33
-1.484705631229487e-21
-5.920629637370428e-33
-2.035397158479669e-21
1.719570591604202e-22
-1.579414409667023e-21
0
-1.643687040964181e-21
3.439141183208404e-22
-1.14655328129487e-21
0
-1.205595290088013e-21
0
-1.2733437720532e-21
3.439141183208405e-22
-2.700575975348822e-21
0
-2.873967213664248e-21
0
-1.534056720882878e-21
0
-3.284416730172288e-21
0
-1.762219580155507e-21
6.878282366416809e-22
-3.789914107817559e-21
-6.878282366416809e-22
-4.082758758390998e-21
0
-3.303815965871592e-21
6.878282366416809e-22
-4.759229468002482e-21
1.375656473283362e-21
-3.860805607303064e-21
2.751312946507514e-21
-4.18007077565008e-21
0
-4.529523249807713e-21
0
-4.911686678088494e-21
-5.920950625694493e-32
-5.329320938418653e-21
0
-5.785442068972905e-21
0
-6.283344049329295e-21
0
-6.826622588729234e-21
0
-9.89226812511863e-21
2.751312946566723e-21
-8.06535900022e-21
0
-8.769762681382073e-21
2.751312946566724e-21
-9.537499144229858e-21
2.751312946566724e-21
-1.729018794360824e-20
-2.751312946566724e-21
-1.504752712004157e-20
0
-1.22786796969976e-20
2.751312946566723e-21
-1.336038725696652e-20
-5.502625893133447e-21
-1.453857980848738e-20
-5.502625893133447e-21
-2.109568790823838e-20
0
-1.721921243547086e-20
0
-2.498801505860609e-20
-5.502625893133447e-21
-3.399692085033951e-20
5.502625893133447e-21
-1.480173566470456e-20
0
-1.611159699876908e-20
5.502625893133447e-21
-3.507562358961987e-20
0
-4.772669944586036e-20
-1.100525178626689e-20
-5.195353832476703e-20
1.100525178626689e-20
-2.262222846916019e-20
0
-6.156603259199761e-20
0
-4.021266404041762e-20
1.100525178626689e-20
-5.83681509003971e-20
1.100525178626689e-20
-6.354093493025441e-20
0
-6.917259387743494e-20
0
-7.53037980144219e-20
2.201050357253379e-20
-4.098941259419085e-20
0
-6.693441044003375e-20
0
-4.857872242366074e-20
0
-5.288532655356448e-20
2.201050357253379e-20
-5.757385376152039e-20
0
-9.401724494928486e-20
4.402100714506757e-20
-1.023526755705718e-19
0
-1.485696916011154e-19
0
-1.213065584959595e-19
-4.402100714506758e-20
-1.320618904454564e-19
0
-1.916945820568115e-19
0
-1.565182562668354e-19
0
-1.703959072152374e-19
-4.402100714506758e-20
-1.855041099041442e-19
4.40210071391464e-20
-2.01951971545711e-19
0
-2.198582740486897e-19
-8.804201429013516e-20
-3.19136442274252e-19
0
-2.605749251838317e-19
8.804201428421418e-20
-2.836793181248967e-19
0
-4.117764853717173e-19
0
-3.362157111741485e-19
8.804201429013454e-20
-7.320542288979932e-19
8.804201429013474e-20
-9.297910148683044e-19
-8.804201429013454e-20
-1.156838233384861e-18
0
-1.889118790927571e-18
0
-2.399393407870316e-18
-1.760840285802666e-19
-3.171887495510006e-18
0
-4.875010362539462e-18
-1.760840285802592e-19
-7.850333730021745e-18
-1.760840285802597e-19
-1.155570598811551e-17
-1.760840285802559e-19
-1.70358612618345e-17
-9.244463733058735e-33
-2.46809770036697e-17
0
-3.603294342215214e-17
0
-5.174027103400649e-17
0
-7.381543266165024e-17
0
-1.042081461696635e-16
-7.04336114320769e-19
-1.444281504029496e-16
-7.043361143207464e-19
-1.985617880476314e-16
-8.217301096052208e-32
-2.694341603249663e-16
-7.043361143206827e-19
-3.594772234308301e-16
-7.04336114320608e-19
-4.701120533795531e-16
0
-6.02544768397184e-16
0
-7.591252008857613e-16
-7.043361143203977e-19
-9.304319182903565e-16
-7.043361143203615e-19
-1.105916477407092e-15
0
-1.269119265550896e-15
7.043361143203844e-19
-1.40052762228704e-15
-7.043361143198389e-19
-1.470831304157134e-15
-1.408672228641152e-18
-1.446443963681905e-15
-3.632047084455076e-31
-1.319928389418819e-15
0
-1.085785858541133e-15
-2.817344457283783e-18
-7.856996765105732e-16
-7.231224964525951e-32
-4.688800313360275e-16
1.408672228642115e-18
-2.071410789800628e-16
0
-4.832312474007952e-17
-6.575981443468498e-18
1.003088512701686e-37
7.669271227889648e-73
0
0
7.570771579226196e-23
0
0
0
0
0
1.514154315845243e-22
0
0
0
0
0
3.028308631690478e-22
0
0
0
0
0
-3.028308632282593e-22
0
0
0
0
0
-6.056617263380957e-22
0
6.056617263380957e-22
0
-5.921351861099572e-32
0
6.056617263380957e-22
0
6.056617262788838e-22
0
0
0
0
0
0
0
0
0
1.211323452676191e-21
0
1.211323452676195e-21
0
2.422646905352386e-21
0
0
0
0
0
0
0
0
0
0
0
-6.419766481290787e-36
0
-6.419766481290787e-36
0
4.845293810704765e-21
0
0
0
0
0
0
0
0
0
-1.283953296258157e-35
0
-9.69058762200164e-21
0
4.845293810704778e-21
0
0
0
1.283953296258157e-35
0
0
0
0
0
0
0
0
0
2.567906592516315e-35
0
0
0
0
0
9.690587621409557e-21
0
2.567906592516315e-35
0
0
0
-5.921849393001872e-31
0
-5.13581318503263e-35
0
1.938117524281911e-20
0
-1.938117524281906e-20
0
-5.13581318503263e-35
0
0
0
0
0
3.876235048563812e-20
0
0
0
3.876235048563823e-20
0
0
0
3.876235048563812e-20
0
3.876235048563812e-20
0
0
-1.346346476971407e-19
0
-2.93144365398253e-19
0
-2.39352331705689e-19
0
-4.342915419730526e-19
-7.75247009712746e-20
-7.564781816663909e-19
-7.752470097127338e-20
-1.338273577458081e-18
7.752470097127236e-20
-1.961258315182532e-18
-7.752470097127235e-20
-3.172234991891305e-18
1.550494019425402e-19
-5.246677869614006e-18
-7.752470097126343e-20
-8.459379581626793e-18
0
-1.345997138535894e-17
-1.550494019425159e-19
-2.099469231886527e-17
0
-3.28383646593977e-17
-3.100988038849256e-19
-5.078135794311939e-17
3.100988032335238e-19
-7.607083952369941e-17
-1.550494019424196e-19
-1.121866456360009e-16
1.550494019423756e-19
-1.645926288066472e-16
-1.550494019423216e-19
-2.361099245148749e-16
0
-3.331494122436049e-16
-6.201976077683545e-19
-4.621116363919599e-16
3.100988038841896e-19
-6.297321574451509e-16
-3.100988038834488e-19
-8.420819811633192e-16
-6.201976077662986e-19
-1.102628205644271e-15
-3.10098803883602e-19
-1.415584039191248e-15
-3.100988038834143e-19
-1.776145150933007e-15
6.201976077646576e-19
-2.178538944503676e-15
-1.963934961956478e-30
-2.604003987983091e-15
-6.201976077661506e-19
-3.03541102041948e-15
0
-3.452385183932613e-15
6.201976077643017e-19
-3.818606474683371e-15
-1.240395215531223e-18
-4.096927643239896e-15
1.643460219210441e-30
-4.249299992891421e-15
1.398584646548086e-30
-4.234236334193131e-15
1.860592823302778e-18
-4.024234440565875e-15
1.24039521553538e-18
-3.612481705282485e-15
0
-3.022998086888389e-15
2.480790431077235e-18
-2.319926616566103e-15
3.721185646618105e-18
-1.579981971135959e-15
1.742067832363068e-31
-9.088797708868648e-16
1.240395215540228e-18
-3.939379448460123e-16
-2.48079043108083e-18
-9.86597130109957e-17
-4.383987628979001e-18
0
-1.632297991443631e-17
0
-1.644038227095191e-17
6.740427792144536e-23
-1.667747124292056e-17
1.348085558382873e-22
-1.703402770709591e-17
0
-1.751408369942793e-17
1.348085558382873e-22
-1.812114799357965e-17
1.348085558382873e-22
-1.885856931666237e-17
2.696171116765747e-22
-1.973160869444407e-17
0
-2.074889774005975e-17
5.392342233623561e-22
-2.191360964514954e-17
2.696171116857814e-22
-2.323778112388277e-17
5.392342233623561e-22
-2.472905088895505e-17
5.392342233531493e-22
-2.640034913905289e-17
0
-2.826240596313253e-17
0
-3.032691786468619e-17
1.078468446724712e-21
-3.261126341924314e-17
1.84134952099623e-32
-3.513111842524592e-17
5.392342233531493e-22
-3.79046805774638e-17
5.392342233531493e-22
-4.09531695711423e-17
0
-4.429502273360708e-17
0
-4.795795200903337e-17
1.078468446743126e-21
-5.196873008612716e-17
1.078468446743126e-21
-5.635178125770928e-17
2.156936893449424e-21
-6.11432991264772e-17
1.078468446706299e-21
-6.638023381870546e-17
2.156936893449424e-21
-7.208880627795498e-17
1.078468446743126e-21
-7.832411650135343e-17
0
-8.511554801555196e-17
2.156936893412597e-21
-9.253117535652397e-17
2.156936893486251e-21
-1.006154872434965e-16
2.156936893486251e-21
-1.094205485153678e-16
4.313873786972503e-21
-1.190221957662104e-16
2.156936893486251e-21
-1.294802089861777e-16
7.365398083984919e-32
-1.408773850568858e-16
2.156936893412597e-21
-1.532881764615959e-16
4.313873786972503e-21
-1.668011261427757e-16
-5.095384551542305e-27
-1.815231205182244e-16
4.313873786825195e-21
-1.975560242823471e-16
4.313873786972503e-21
-2.150156225755407e-16
4.313873786972503e-21
-2.340280037393772e-16
4.313873786972503e-21
-2.547230690640903e-16
0
-2.772805843488159e-16
4.313873786825195e-21
-3.018169720827816e-16
0
-3.285315083055244e-16
8.627747573945006e-21
-3.576377671200313e-16
8.627747573650389e-21
-3.893285519542469e-16
-5.095826513945943e-27
-4.238082551466024e-16
8.627747573650389e-21
-4.613598945459021e-16
8.627747573945006e-21
-5.022579384979171e-16
8.627747573650389e-21
-5.467856303085718e-16
-5.095237243580624e-27
-5.952128771566684e-16
1.725549514730078e-20
-6.479703559747866e-16
0
-7.054277907460247e-16
1.725549514730078e-20
-7.679608024384627e-16
1.725549514789001e-20
-8.360155235601803e-16
0
-9.101564699868446e-16
0
-9.908172363088852e-16
1.725549514730078e-20
-1.078691190384795e-15
1.725549514789001e-20
-1.174326364379694e-15
3.451099029519079e-20
-1.278405053804697e-15
0
-1.391709710104644e-15
-5.095531867207704e-26
-1.515190089608966e-15
3.451099029460156e-20
-1.649483955055249e-15
-3.451099029695843e-20
-1.795681781397313e-15
0
-1.954781847573203e-15
-6.902198059038178e-20
-2.128041314117041e-15
-2.356311089292971e-30
-2.316725700248548e-15
0
-2.52192097552117e-15
2.355797507974467e-30
-2.745171784387832e-15
0
-2.988229812853984e-15
6.902198058921123e-20
-3.252241542642879e-15
-6.902198058686324e-20
-3.539167419709238e-15
6.902198058922243e-20
-3.850566468173798e-15
0
-4.188448270639868e-15
6.902198058924544e-20
-4.554249218112794e-15
-6.902198058926537e-20
-4.948520148082915e-15
0
-5.373283547661655e-15
0
-5.828212280338707e-15
-4.590800689836967e-30
-6.312335988490984e-15
1.380439611789202e-19
-6.823389504101067e-15
2.760879223627051e-19
-7.358416338868779e-15
-1.380440102721044e-19
-7.910723352426688e-15
4.288404009502245e-30
-8.472589031039155e-15
2.760879223643128e-19
-9.032666924915279e-15
0
-9.578705688251676e-15
-2.760879223622663e-19
-1.009324182625147e-14
2.760879223707638e-19
-1.05589202815584e-14
-2.76087922365105e-19
-1.095929017226997e-14
-2.760879223728724e-19
-1.127674054082728e-14
2.760879223685373e-19
-1.149805760692086e-14
-2.760882956911316e-19
-1.16133363166818e-14
-2.760879223722491e-19
-1.161727919698282e-14
0
-1.150211576756283e-14
0
-1.12688549819398e-14
0
-1.091106269598482e-14
0
-1.042178650168323e-14
-1.104351689527668e-18
-9.794399258063897e-15
2.396986729718428e-30
-9.017401694410922e-15
1.104351689529928e-18
-8.088365900224571e-15
1.204656340681253e-30
-7.009777590054016e-15
-1.577721810442023e-30
-5.81601088741328e-15
0
-4.553588363895249e-15
0
-3.305375828113336e-15
0
-2.166720954984967e-15
1.104351689540136e-18
-1.216369936364477e-15
3.313055068620871e-18
-5.243258561682838e-16
1.104351689540363e-18
-1.318818612698003e-16
-1.09599690724475e-17
0
-1.749906911222255e-19
0
-1.767320793820915e-19
0
-1.783064909179189e-19
-1.212085409029592e-22
-1.82618792641227e-19
1.212085409075132e-22
-1.872565385801296e-19
4.554021847665652e-33
-1.942679723890439e-19
-1.212085409029592e-22
-2.016256103582729e-19
2.424170818150264e-22
-2.109658037582562e-19
0
-2.218295333761944e-19
-2.42417596799112e-22
-2.349319259328909e-19
0
-2.491281337368533e-19
-2.424170818059183e-22
-2.64404983646216e-19
4.848341636300528e-22
-2.822664366533444e-19
4.84833648618346e-22
-3.029874433474688e-19
-4.848341636118367e-22
-3.251295125496157e-19
0
-3.505670549731242e-19
4.848341636118367e-22
-3.756138057610767e-19
0
-4.063693638131306e-19
0
-4.366593036783621e-19
0
-4.735921545067377e-19
0
-5.141487054049599e-19
-5.150305165887495e-28
-5.571313597154234e-19
-3.643217478132522e-32
-6.041374614158101e-19
0
-6.537300351126881e-19
-9.696683272236733e-22
-7.116093744836673e-19
-9.6966884225419e-22
-7.728513180565779e-19
-5.150305165887495e-28
-8.373990375507861e-19
0
-9.125617345531188e-19
0
-9.9203915702706e-19
0
-1.078680809809995e-18
-7.286434956265043e-32
-1.169933228358863e-18
1.939336654447347e-21
-1.272557832649567e-18
-7.286434956265043e-32
-1.388134376823835e-18
-7.286434956265043e-32
-1.510277602730705e-18
0
-1.643327632606882e-18
0
-1.788245316443948e-18
3.878673308894693e-21
-1.951351131402511e-18
3.878673309040422e-21
-2.11796312967216e-18
0
-2.29889738539176e-18
3.878673308894693e-21
-2.50217337447604e-18
-3.878673308894693e-21
-2.730920230247235e-18
-3.878673309040422e-21
-2.972589646272896e-18
-3.878673308894693e-21
-3.235726276142432e-18
0
-3.522230419104495e-18
0
-3.834171128367808e-18
0
-4.162490038325475e-18
0
-4.54357320518017e-18
-5.149712749836601e-27
-4.93275345562457e-18
0
-5.384461920670877e-18
0
-5.861651247315969e-18
0
-6.38117178508413e-18
-5.150004207234851e-27
-6.94677536683042e-18
0
-7.542051917440065e-18
0
-8.210621013868516e-18
0
-8.962774287274661e-18
5.829147965012034e-31
-9.730900085855864e-18
1.551469323616169e-20
-1.062237601900051e-17
1.551469323616169e-20
-1.156412112876204e-17
0
-1.255526153665681e-17
1.551469323616169e-20
-1.370555405020289e-17
0
-1.492070669500301e-17
0
-1.624361252369867e-17
0
-1.768382519583332e-17
3.102938647232322e-20
-1.925174552082075e-17
1.165726876738706e-30
-2.090189795173578e-17
-3.102938647232291e-20
-2.287884022151112e-17
-3.102938646999156e-20
-2.49747271478196e-17
-6.205877294347856e-20
-2.748228425608621e-17
-6.205877294231242e-20
-3.01982858502011e-17
-2.3295021444671e-30
-3.274558226476818e-17
6.205877294230872e-20
-3.612183317457018e-17
-6.205877294463185e-20
-4.00452632023995e-17
-1.241175458892489e-19
-4.494083339361118e-17
0
-5.057274631303636e-17
-1.241175458868799e-19
-5.804552478534988e-17
0
-6.767503665301435e-17
-1.241175458890856e-19
-8.044497518033239e-17
2.482350917779887e-19
-9.828943710097332e-17
1.241175458888711e-19
-1.228639950466669e-16
0
-1.572190841918977e-16
0
-2.034452684936147e-16
-1.241175458839069e-19
-2.679479325994281e-16
1.241175458920389e-19
-3.534285986437437e-16
0
-4.673692523931905e-16
2.482350917737959e-19
-6.153556975800291e-16
-4.964701835305007e-19
-8.024814585862576e-16
0
-1.034520527577243e-15
0
-1.314425443705429e-15
5.76690190920944e-30
-1.640197635542863e-15
-2.482350917609576e-19
-2.011269403334142e-15
0
-2.418701665581047e-15
-4.964701835249974e-19
-2.850764167482734e-15
6.756264961174125e-30
-3.289252065790576e-15
-4.964701835181813e-19
-3.710020943840912e-15
4.964701835104923e-19
-4.088379550799105e-15
0
-4.395529623338547e-15
1.48941055052687e-18
-4.596720959810404e-15
0
-4.656561677442282e-15
4.964701835044279e-19
-4.548525957263739e-15
-4.964701835056852e-19
-4.253079794535942e-15
9.929403670068361e-19
-3.773936779823902e-15
8.90755438812059e-31
-3.137545488264386e-15
0
-2.40736283751793e-15
9.929403670031381e-19
-1.652544106106647e-15
8.217301096052201e-32
-9.717368765369845e-16
9.929403670024941e-19
-4.429490037118306e-16
9.929403670024448e-19
-1.198010800847805e-16
-8.767975257958e-18
0
0
0
0
5.497369370165465e-23
0
1.099473874033587e-22
0
2.198947748066679e-22
0
2.198947748066679e-22
0
2.198947748066679e-22
0
0
0
0
0
2.198947748066186e-22
0
2.198947748066186e-22
0
2.198947748067173e-22
0
4.397895496134346e-22
0
0
0
4.397895496134346e-22
0
4.397895496132372e-22
0
4.397895496130397e-22
0
8.795790992266717e-22
0
1.319368648839909e-21
0
0
0
0
0
8.795790992264744e-22
0
8.795790992264744e-22
0
8.795790992264744e-22
0
1.759158198453343e-21
0
1.759158198453343e-21
0
8.795790992264744e-22
0
0
0
1.759158198453738e-21
0
1.759158198452949e-21
0
1.759158198452949e-21
0
1.759158198452949e-21
0
1.759158198452949e-21
0
5.277474595359635e-21
0
5.277474595359635e-21
0
0
0
0
0
3.518316396907477e-21
0
0
0
3.518316396904318e-21
0
3.518316396907477e-21
0
3.518316396905898e-21
0
0
0
7.036632793811795e-21
0
7.036632793811795e-21
0
7.036632793814954e-21
0
0
0
7.036632793811795e-21
0
7.036632793811795e-21
0
1.407326558762675e-20
0
7.036632793814954e-21
0
1.407326558762675e-20
0
1.407326558762991e-20
0
0
0
2.81465311752535e-20
0
1.407326558762991e-20
0
2.81465311752535e-20
0
1.407326558762359e-20
0
1.407326558762359e-20
0
1.407326558763623e-20
0
0
0
0
0
0
0
0
0
5.629306235050699e-20
0
2.814653117526013e-20
0
2.814653117527286e-20
0
-1.283953296258157e-32
0
-2.57817821888638e-32
0
-5.629306235052107e-20
-8.685830839461046e-20
2.619264724366641e-32
-3.782390908331956e-19
-2.680894482587033e-32
-4.117764853717173e-19
0
-4.482876148988646e-19
5.629306235050063e-20
-8.54063267047659e-19
-5.629306235050381e-20
-1.527513810140786e-18
-1.125861247010795e-19
-2.458281245942829e-18
-8.363959377363998e-28
-3.778237581784086e-18
1.125861247011216e-19
-6.084176141490551e-18
-1.125861247010656e-19
-9.422371677838546e-18
3.377583741034919e-19
-1.432034293995967e-17
1.222323538037766e-31
-2.133963957568893e-17
-1.458570944549267e-31
-3.189856340469381e-17
-1.748230808185107e-31
-4.665205084062764e-17
-4.503444988056439e-19
-6.705236527008532e-17
4.503444988060438e-19
-9.489710530575412e-17
4.503444988064859e-19
-1.318869653808009e-16
0
-1.802127395904129e-16
-7.814653342345648e-31
-2.416827390011811e-16
-2.251722494044048e-19
-3.198363572367434e-16
2.251722494046646e-19
-4.158871900375629e-16
-6.755167482125716e-19
-5.316282472134523e-16
-2.251722494039504e-19
-6.677212012707659e-16
-4.503444988057759e-19
-8.259139399334392e-16
4.503444988079889e-19
-1.002573105777153e-15
2.150467696836862e-30
-1.191354382251338e-15
0
-1.387146268322384e-15
-4.503444988090373e-19
-1.571270978020975e-15
-9.006889976150662e-19
-1.727464406506869e-15
0
-1.827063539311436e-15
9.006889976112675e-19
-1.849648127961955e-15
-9.00688997610168e-19
-1.773587017340731e-15
0
-1.589838932890997e-15
-9.006889976089912e-19
-1.31369338528442e-15
-9.006889976080857e-19
-9.682753709529506e-16
9.006889976076469e-19
-6.098838088754851e-16
-1.801377995214358e-18
-2.940663531949105e-16
-9.006889976071046e-19
-8.65789318259758e-17
-6.575981443468499e-18
2.513360127636882e-23
-1.896918060945533e-21
5.026720255273784e-23
-1.432962805800741e-21
5.026720255273784e-23
-1.938114031716509e-21
2.010688102109506e-22
-1.484705631229487e-21
1.005344051054753e-22
-2.035397158479669e-21
1.005344051054753e-22
-1.579414409667023e-21
1.005344051054753e-22
-2.191582721285575e-21
2.010688102109506e-22
-2.293106562589741e-21
2.010688102109506e-22
-2.411190580176026e-21
4.02137620421902e-22
-1.910015657990983e-21
2.010688102109506e-22
-2.700575975467244e-21
4.021376204219011e-22
-2.873967213545826e-21
4.021376204219011e-22
-2.301085081413134e-21
4.021376204219011e-22
-2.463312547540396e-21
8.042752408438022e-22
-2.643329370322079e-21
4.021376203034749e-22
-3.789914107699133e-21
8.042752408438039e-22
-4.082758758390998e-21
8.042752407253776e-22
-4.405087954495456e-21
4.021376204219011e-22
-3.569422101001862e-21
1.608550481687608e-21
-5.147740809855845e-21
8.042752408438022e-22
-4.18007077565008e-21
1.608550481687608e-21
-4.529523249718889e-21
1.608550481569187e-21
-4.911686678088504e-21
8.042752408438054e-22
-5.329320938507467e-21
1.608550481569184e-21
-5.785442068884091e-21
1.608550481687604e-21
-6.283344049329284e-21
1.608550481687608e-21
-9.10216345163898e-21
1.608550481687611e-21
-7.419201093927795e-21
1.608550481687604e-21
-8.06535900022e-21
1.608550481687604e-21
-8.769762681382073e-21
3.217100963375216e-21
-9.537499144229858e-21
3.217100963375216e-21
-1.383215035488659e-20
3.217100963375216e-21
-1.504752712004157e-20
1.608550481687604e-21
-1.22786796969976e-20
3.217100963375216e-21
-1.336038725696652e-20
3.217100963375209e-21
-1.453857980848738e-20
3.217100963375209e-21
-2.636960988381771e-20
3.217100963375209e-21
-1.721921243635903e-20
6.434201926750431e-21
-1.874101129395456e-20
6.434201926750431e-21
-2.039815250931554e-20
3.217100963375209e-21
-2.960347133059333e-20
9.65130289012564e-21
-2.416739549815362e-20
3.217100963375209e-21
-2.63067176922149e-20
6.434201926750418e-21
-3.818135955668829e-20
6.434201926750418e-21
-4.156283065981363e-20
6.434201926750418e-21
-4.524445693832038e-20
6.434201926750418e-21
-3.693961955431033e-20
6.434201926750418e-21
-5.361688538722359e-20
1.286840385350086e-20
-4.377611317618598e-20
1.286840385231663e-20
-6.354093492907019e-20
1.286840385350084e-20
-6.917259387743495e-20
1.286840385350084e-20
-7.53037980144219e-20
1.286840385350084e-20
-6.148411889217444e-20
2.573680770700173e-20
-6.693441043914551e-20
1.286840385350084e-20
-7.286808363637935e-20
1.286840385350079e-20
-7.932798983034671e-20
2.573680770700167e-20
-8.636078064228058e-20
1.286840385350084e-20
-1.253563265990465e-19
2.573680770700173e-20
-6.823511704704787e-20
3.860521156050251e-20
-1.485696916011154e-19
2.573680770700167e-20
-1.213065584959595e-19
5.147361541400345e-20
-1.760825205820994e-19
2.573680770700167e-20
-1.437709365514904e-19
2.573680770700167e-20
-1.565182562668354e-19
5.147361541400345e-20
-1.703959072152374e-19
5.147361541400345e-20
-1.855041099041442e-19
5.147361541400334e-20
-2.01951971545711e-19
7.721042312100524e-20
-2.93144365398253e-19
5.147361541400334e-20
-2.39352331705689e-19
0
-2.605749251838317e-19
0
-2.836793181248967e-19
0
-4.117764853717173e-19
0
-3.362157111741485e-19
5.147361541400458e-20
-7.320542288979932e-19
5.147361541400417e-20
-1.062618302706634e-18
5.14736154140053e-20
-1.156838233384861e-18
0
-1.574265659076703e-18
0
-2.570778651334036e-18
0
-4.104795582424712e-18
0
-5.484386657856895e-18
0
-7.739765649213603e-18
-2.058944616560822e-19
-1.19168218002441e-17
-1.787262988391355e-32
-1.703586126202695e-17
1.029472308280552e-19
-2.382498936192393e-17
0
-3.339259843001168e-17
2.058944616561695e-19
-4.666769544243723e-17
-9.573155776900816e-32
-6.369112144870571e-17
-2.058944616562492e-19
-8.63725211521634e-17
-2.058944616564345e-19
-1.149752798524991e-16
0
-1.517715102421489e-16
-1.902305203736085e-31
-1.970334262532348e-16
4.117889233131057e-19
-2.508177025009496e-16
0
-3.159618820301951e-16
0
-3.926883678867584e-16
-4.117889233131312e-19
-4.798107130957372e-16
4.117889233137418e-19
-5.741551828974065e-16
-4.117889233125962e-19
-6.728483667525436e-16
-4.11788923313123e-19
-7.667205016400536e-16
-8.235778466270742e-19
-8.459288880699136e-16
8.235778466262468e-19
-8.9427432012575e-16
-8.235778466247619e-19
-8.937475661880671e-16
-8.235778466245895e-19
-8.380393215611758e-16
-1.64715569324955e-18
-7.238572390274217e-16
2.103629080589363e-31
-5.602108914941326e-16
8.235778466243346e-19
-3.737449525142248e-16
-1.647155693248237e-18
-1.895710767451467e-16
0
-5.939717415968107e-17
-8.767975257957996e-18
0
0
0
0
-2.006177025403371e-37
0
4.012354050806741e-37
0
-9.260272198574832e-23
0
4.012354050806741e-37
0
0
0
8.024708101613483e-37
0
0
0
0
0
-1.852054439714974e-22
0
0
0
0
0
0
0
0
0
0
0
-1.604941620322697e-36
0
0
0
0
0
0
0
-7.408217758859865e-22
0
0
0
0
0
0
0
0
0
0
0
0
0
-1.481643551771973e-21
0
0
0
-1.481643551771979e-21
0
0
0
1.481643551771973e-21
0
0
0
-1.481643551771979e-21
0
0
0
0
0
0
0
0
0
0
0
-1.283953296258157e-35
0
2.963287103543959e-21
0
0
0
-2.963287103543946e-21
0
0
0
0
0
0
0
-5.926574207087892e-21
0
0
0
0
0
5.926574207087918e-21
0
2.567906592516314e-35
0
-5.926574207087918e-21
0
0
0
0
0
0
0
0
0
0
0
0
0
0
0
1.185314841417584e-20
0
0
0
0
0
1.027162637006526e-34
0
1.027162637006526e-34
0
0
0
0
0
1.027162637006526e-34
0
-1.027162637006526e-34
0
0
0
0
0
0
0
0
0
4.741259365670396e-20
0
0
0
0
0
4.741259365670396e-20
-2.89209558346215e-19
0
-4.722796977230107e-19
0
-4.284631085556726e-19
9.482518731341203e-20
-1.026198895606178e-18
0
-1.62500345417982e-18
-9.482518731341676e-20
-2.432497775467132e-18
-5.341245712433933e-33
-3.250042309157482e-18
9.482518731342455e-20
-5.24180346523906e-18
9.244463733058731e-33
-7.418559561796674e-18
-1.896503746268754e-19
-1.025075114595707e-17
-1.896503746268923e-19
-1.437229750944625e-17
0
-2.024862242588909e-17
-4.437342591868192e-32
-2.765523879117993e-17
-1.896503746269629e-19
-3.621612230647981e-17
6.532754371361503e-32
-4.77403342076243e-17
3.793007492539715e-19
-6.205777204826292e-17
0
-7.966488193913438e-17
-3.79300749253962e-19
-1.127778589593713e-16
-3.793007492539645e-19
-1.791619826297275e-16
0
-2.466248858380057e-16
0
-2.985448781594641e-16
2.054325274013053e-31
-3.564417451510596e-16
-3.793007492540467e-19
-4.124168957477061e-16
0
-4.637812781999707e-16
-3.79300749254188e-19
-5.004603493374539e-16
-7.586014985079044e-19
-5.133908550024823e-16
-7.586014985077695e-19
-4.911055254396207e-16
0
-4.357477240877944e-16
1.446244992905188e-31
-3.261394883628794e-16
8.874685183736382e-32
-1.919689983368518e-16
-7.586014985072765e-19
-9.247369597324229e-17
7.586014985072732e-19
-2.818848943171305e-17
-2.191993814489501e-18
2.146843413694434e-23
-4.742295152363833e-22
4.293686827388869e-23
-4.77654268600247e-22
4.293686826648689e-23
-4.845285079261666e-22
8.587373654777737e-23
-4.949018770794566e-22
1.71747473088153e-22
-5.088492896169565e-22
2.576212096433323e-22
-5.264714698919685e-22
1.717474730955547e-22
-5.478956803213938e-22
1.717474730955547e-22
-1.14655328129487e-21
3.434949461911099e-22
-6.027976450440066e-22
3.434949461911103e-22
-1.273343771993989e-21
3.434949461911103e-22
-1.350287987733622e-21
1.717474730955547e-22
-7.184918033864565e-22
3.434949461911095e-22
-7.670283604710447e-22
3.434949461911095e-22
-1.642208365026931e-21
3.434949461911095e-22
-8.811097901073598e-22
6.869898923822197e-22
-9.474785269247834e-22
6.869898923822207e-22
-1.02068968959775e-21
6.869898923822197e-22
-2.202543977247728e-21
3.434949461911103e-22
-1.18980736700062e-21
0
-1.286935202463961e-21
6.86989892382219e-22
-2.786713850433386e-21
6.869898923822207e-22
-1.50984108323963e-21
1.373979784764439e-21
-1.637228892696168e-21
6.869898923081991e-22
-3.552880625612429e-21
1.373979784764441e-21
-1.928480689657638e-21
2.060969677146658e-21
-2.094448016443095e-21
1.373979784764441e-21
-2.275540862909745e-21
1.373979784764438e-21
-2.473067031309265e-21
-1.373979784764441e-21
-2.688453000073333e-21
1.373979784764438e-21
-2.923254227127357e-21
4.12193935429332e-21
-3.179166381409953e-21
1.373979784764441e-21
-3.458037588721648e-21
4.12193935429332e-21
-3.761881780010393e-21
4.12193935429332e-21
-4.092893232332532e-21
1.373979784764441e-21
-4.453462418988839e-21
2.747959569528876e-21
-4.846193269495794e-21
2.747959569528883e-21
-5.273921976763543e-21
5.495919139057752e-21
-5.739737478786342e-21
2.747959569528883e-21
-6.247003764651521e-21
2.747959569528889e-21
-6.799384169771847e-21
2.747959569528876e-21
-7.400867832648333e-21
2.747959569528876e-21
-8.055798499384542e-21
-6.419766481290785e-36
-8.768905897404966e-21
1.099183827811552e-20
-9.545339889172072e-21
1.099183827811552e-20
-2.078141532990681e-20
1.099183827811552e-20
-1.131111423458009e-20
1.099183827811552e-20
-1.231320651810344e-20
5.495919139057752e-21
-1.34042213468059e-20
1.099183827811552e-20
-1.459203772539533e-20
1.648775741717326e-20
-3.17704674645351e-20
2.198367655623103e-20
-1.729314846935873e-20
1.648775741717327e-20
-3.765189900721095e-20
1.09918382781155e-20
-2.049470629739148e-20
1.099183827811553e-20
-2.231147014638184e-20
2.198367655623103e-20
-2.428936121212645e-20
2.198367655623101e-20
-2.644266327678224e-20
2.198367655623103e-20
-2.878692688076019e-20
3.297551483434654e-20
-3.133908164976163e-20
3.297551483434656e-20
-3.411755852352394e-20
3.297551483434651e-20
-7.428484580055767e-20
2.198367655623101e-20
-4.043551949865315e-20
2.198367655623101e-20
-4.402063014552486e-20
2.198367655623101e-20
-4.792364551716346e-20
4.396735311246206e-20
-5.217275208894512e-20
4.396735311246206e-20
-1.135972714768249e-19
2.198367655623106e-20
-1.855041099041442e-19
2.198367655623101e-20
-6.731732384857036e-20
4.396735311246206e-20
-7.328609134956323e-20
8.793470622492413e-20
-2.39352331705689e-19
8.793470622492413e-20
-8.685830839461055e-20
4.396735311246212e-20
-9.45597727082989e-20
4.396735311246212e-20
-2.058882426858586e-19
-1.027162637006526e-34
-1.120719037247161e-19
4.396735311246232e-20
-2.440180762993311e-19
0
-2.656545756766584e-19
0
-3.615119479327689e-19
0
-7.084195465845163e-19
0
-1.028311460533614e-18
0
-8.396172782232368e-19
-8.793470622492629e-20
-1.523440738293582e-18
2.054325274013053e-34
-1.769089291248824e-18
0
-2.76855455965267e-18
8.793470622492773e-20
-3.538217339036366e-18
0
-5.13592585047462e-18
0
-7.144462919909475e-18
-1.758694124498649e-19
-9.806979477033911e-18
0
-1.362180054105266e-17
0
-1.78356250175001e-17
3.517388248997525e-19
-2.334412702887554e-17
1.109335647967048e-32
-3.016429076800142e-17
-1.758694124498945e-19
-4.033755183137089e-17
0
-5.179624832791776e-17
0
-6.496985353094215e-17
-3.517388248998671e-19
-8.207420433317124e-17
3.517388248999632e-19
-1.144136068320645e-16
8.299474107012725e-32
-1.704276059426875e-16
7.034776497999248e-19
-2.204084221223943e-16
7.034776497998557e-19
-2.58229215405666e-16
7.034776497998549e-19
-2.928607851339749e-16
3.517388248999582e-19
-3.160509864295352e-16
0
-3.265383530051124e-16
-7.034776497996519e-19
-3.179677865781994e-16
0
-2.866761342682858e-16
-7.03477649799527e-19
-2.067630727659403e-16
2.465190328815661e-32
-1.129729061008907e-16
8.217301096052206e-33
-6.288211326180476e-17
0
-2.516829413545808e-17
-2.191993814489501e-18
-5.015442563508426e-38
-1.896918060945533e-21
0
-1.432962805800741e-21
-8.013295117791124e-23
-1.938114031704666e-21
-8.013295117791134e-23
-1.48470563123837e-21
-8.013295117791134e-23
-2.544246448084783e-21
-8.013295117791134e-23
-1.052942939783937e-21
-8.013295117791134e-23