/*--------------------------------*- C++ -*----------------------------------*\
| =========                 |                                                 |
| \\      /  F ield         | OpenFOAM: The Open Source CFD Toolbox           |
|  \\    /   O peration     | Version:  v1812                                 |
|   \\  /    A nd           | Web:      www.OpenFOAM.com                      |
|    \\/     M anipulation  |                                                 |
\*---------------------------------------------------------------------------*/
FoamFile
{
    version     2.0;
    format      ascii;
    class       surfaceScalarField;
    location    "0.00000067";
    object      meshPhi;
}
// * * * * * * * * * * * * * * * * * * * * * * * * * * * * * * * * * * * * * //

dimensions      [0 3 -1 0 0 0 0];


internalField   nonuniform List<scalar> 
87612
(
0
9.484590304727666e-22
0
1.910617074400989e-21
-8.597852958021032e-23
9.690570158582546e-22
2.960314818685214e-33
1.484705631229487e-21
-1.719570591574603e-22
2.035397158479669e-21
0
1.579414409667023e-21
-1.719570591604206e-22
1.643687040964181e-21
1.604941620322697e-36
1.14655328129487e-21
-3.439141183208413e-22
1.205595290088013e-21
0
1.2733437720532e-21
0
2.700575975348822e-21
0
2.873967213664248e-21
6.878282366416825e-22
1.534056720882878e-21
6.878282366416825e-22
3.284416730172288e-21
1.375656473283362e-21
1.762219580155507e-21
0
3.789914107817559e-21
-1.375656473283362e-21
4.082758758390998e-21
6.878282366416793e-22
3.303815965871592e-21
-6.878282366416825e-22
4.759229468002482e-21
0
3.860805607303064e-21
2.960154324523181e-32
4.18007077565008e-21
-1.375656473283359e-21
4.529523249807713e-21
0
4.911686678088494e-21
1.375656473312967e-21
5.329320938418653e-21
0
5.785442068972905e-21
0
6.283344049329295e-21
-6.419766481290786e-36
6.826622588729234e-21
0
9.89226812511863e-21
1.283953296258157e-35
8.06535900022e-21
0
8.769762681382073e-21
-1.283953296258157e-35
9.537499144229858e-21
-1.283953296258157e-35
1.729018794360824e-20
-2.75131294656673e-21
1.504752712004157e-20
2.751312946566717e-21
1.22786796969976e-20
2.751312946566717e-21
1.336038725696652e-20
0
1.453857980848738e-20
0
2.109568790823838e-20
5.50262589313346e-21
1.721921243547086e-20
-5.50262589313346e-21
2.498801505860609e-20
0
3.399692085033951e-20
-5.502625893133435e-21
1.480173566470456e-20
0
1.611159699876908e-20
2.567906592516314e-35
3.507562358961987e-20
0
4.772669944586036e-20
-1.100525178626692e-20
5.195353832476703e-20
0
2.262222846916019e-20
-1.100525178626692e-20
6.156603259199761e-20
1.100525178626692e-20
4.021266404041762e-20
1.100525178626687e-20
5.83681509003971e-20
0
6.354093493025441e-20
1.100525178626692e-20
6.917259387743494e-20
-1.100525178626687e-20
7.53037980144219e-20
0
4.098941259419085e-20
0
6.693441044003375e-20
-2.201050357253384e-20
4.857872242366074e-20
0
5.288532655356448e-20
0
5.757385376152039e-20
0
9.401724494928486e-20
-2.201050357253384e-20
1.023526755705718e-19
1.027162637006526e-34
1.485696916011154e-19
-4.402100714506768e-20
1.213065584959595e-19
-4.402100714506768e-20
1.320618904454564e-19
0
1.916945820568115e-19
0
1.565182562668354e-19
-4.402100714506748e-20
1.703959072152374e-19
0
1.855041099041442e-19
2.960488152380209e-30
2.01951971545711e-19
-4.402100714506768e-20
2.198582740486897e-19
0
3.19136442274252e-19
8.804201429013495e-20
2.605749251838317e-19
2.96069358490761e-30
2.836793181248967e-19
8.804201429013495e-20
4.117764853717173e-19
0
1.120719037247161e-19
0
0
-2.054325274013052e-34
0
-8.804201429013454e-20
-2.89209558346215e-19
0
-7.871328295531546e-19
0
-1.199696703935158e-18
1.760840285802666e-19
-2.238979408595299e-18
-1.760840285802662e-19
-4.062508635449551e-18
1.760840285802654e-19
-6.523516761567365e-18
5.282520857407875e-19
-1.035198661435348e-17
1.76084028580256e-19
-1.493913987576256e-17
-8.422733623453512e-33
-2.296900172017816e-17
0
-3.385854166391882e-17
-3.521680571604695e-19
-4.971124079737879e-17
3.521680571604889e-19
-7.160649203337143e-17
5.300159206953676e-32
-1.018033427965174e-16
3.52168057160419e-19
-1.422464562881014e-16
-7.043361143209457e-19
-1.957116188412061e-16
3.521680571603763e-19
-2.671069938730232e-16
-9.860761315262648e-32
-3.552547031869284e-16
1.408672228641451e-18
-4.655151297806657e-16
7.043361143208036e-19
-6.012102284893275e-16
0
-7.547665872921589e-16
7.043361143203977e-19
-9.260822578138608e-16
7.043361143203614e-19
-1.101611625412514e-15
-7.043361143207155e-19
-1.267244643297497e-15
-1.408672228641116e-18
-1.39848678057879e-15
-7.043361143204601e-19
-1.467498604827473e-15
1.408672228641152e-18
-1.446443963681906e-15
1.408672228641438e-18
-1.315320160627831e-15
-1.408672228641937e-18
-1.085069168205462e-15
0
-7.841392004896981e-16
2.817344457284178e-18
-4.680306109894043e-16
-1.408672228642138e-18
-2.025173941814007e-16
0
-5.436351533258946e-17
-2.191993814489501e-18
0
9.484590304727666e-22
0
9.553085372004943e-22
0
9.690570158582546e-22
0
9.898037541529919e-22
0
1.017698579239834e-21
0
1.052942939778016e-21
0
1.095791360642788e-21
0
1.14655328129487e-21
0
1.205595290088013e-21
0
1.2733437720532e-21
0
1.350287987674411e-21
8.881666679784787e-32
1.436983606772913e-21
0
1.534056720942089e-21
0
1.642208365086144e-21
0
1.762219580155507e-21
0
1.894957053908779e-21
8.881907421027836e-32
2.041379379136286e-21
0
2.202543977306941e-21
8.881907421027836e-32
2.379614733942028e-21
0
2.573870404927922e-21
0
2.786713850433386e-21
0
3.019682166538475e-21
0
3.274457785392329e-21
0
3.552880625612435e-21
0
3.856961379315271e-21
0
4.188896032886196e-21
0
4.55108172581949e-21
0
4.946134062559315e-21
0
5.376906000146666e-21
0
5.846508454254715e-21
0
6.358332762819906e-21
0
6.916075177443297e-21
0
7.523763560020785e-21
0
8.185786464665066e-21
0
8.906924837977678e-21
0
9.692386538991587e-21
0
1.054784395411919e-20
0
1.147947495698058e-20
0
1.249400752930304e-20
8.881618531536176e-31
1.359876833954369e-20
0
1.480173566529667e-20
0
1.611159699876908e-20
0
1.753781179480993e-20
0
1.909067977834414e-20
0
2.078141532990681e-20
0
2.262222846916019e-20
0
2.462641303679904e-20
0
2.680844269361174e-20
0
2.918407545019855e-20
0
3.177046746512721e-20
0
3.458629693871747e-20
0
3.765189900721095e-20
0
4.098941259419085e-20
8.882388903513932e-31
4.462294029276367e-20
0
4.857872242425291e-20
0
5.288532655356448e-20
0
5.757385376152039e-20
0
6.267816329952325e-20
0
6.823511704704787e-20
0
7.428484580055768e-20
0
8.08710389973063e-20
0
8.80412602969709e-20
0
9.584729102840574e-20
0
1.043455041778903e-19
0
1.135972714768249e-19
0
1.236694066027628e-19
-1.027162637006526e-34
6.731732384857041e-20
3.876235048563791e-20
0
0
0
0
-8.685830839461046e-20
0
-4.727988635414942e-19
0
-8.235529707434344e-19
0
-1.7371145077331e-18
7.752470097127235e-20
-3.050225953741639e-18
-1.550494019425402e-19
-4.848196006099018e-18
-1.550494019425393e-19
-8.314774802453686e-18
0
-1.314511825353768e-17
1.550494019425159e-19
-2.082330707544596e-17
-1.550494019425264e-19
-3.265178304201476e-17
-3.59506922952284e-32
-4.996885621602948e-17
-6.364854366716418e-28
-7.518629487807499e-17
-6.656013887802286e-32
-1.121866456360009e-16
8.85414193099625e-32
-1.634132230269817e-16
-1.550494019425525e-19
-2.351112722661715e-16
0
-3.322175257757906e-16
3.100988038843626e-19
-4.614352929797507e-16
0
-6.286276871310114e-16
0
-8.400779783523642e-16
0
-1.101755527998332e-15
3.10098803883602e-19
-1.413683926386964e-15
8.459711478385745e-31
-1.774852280681928e-15
-6.201976077674345e-19
-2.177694440454896e-15
6.20197607766278e-19
-2.602165218543537e-15
6.201976077661508e-19
-3.034076480511623e-15
6.201976077661416e-19
-3.452021966133147e-15
-6.20197607768242e-19
-3.818606474683371e-15
-6.201976077683718e-19
-4.096497158040438e-15
-6.201976077669231e-19
-4.247894026201372e-15
6.201976077688131e-19
-4.231685282057819e-15
2.244966659441463e-30
-4.023678990677599e-15
0
-3.613086405936198e-15
-2.480790431078523e-18
-3.025631360483239e-15
-1.2403952155397e-18
-2.319926616566103e-15
3.94430452610506e-31
-1.581542447156834e-15
0
-9.088797708868648e-16
-1.240395215540374e-18
-3.939379448460123e-16
2.480790431080836e-18
-9.86597130109957e-17
-4.383987628979001e-18
3.370213896187347e-23
-1.63215572258906e-17
6.740427792374694e-23
-1.643942696241471e-17
1.348085558474939e-22
-1.66765021859047e-17
0
-1.703303790334176e-17
0
-1.751306600084869e-17
5.392342233807684e-22
-1.811956857916998e-17
4.044256675332745e-22
-1.885692562962141e-17
0
-1.973160869444407e-17
2.696171116949878e-22
-2.074769214476966e-17
2.696171116949878e-22
-2.191233630137749e-17
2.696171116949878e-22
-2.32364308358951e-17
2.696171116949878e-22
-2.472905088895506e-17
1.078468446761537e-21
-2.639958211069242e-17
1.078468446761537e-21
-2.826076375476744e-17
0
-3.032427453531596e-17
5.392342234083899e-22
-3.261031594071619e-17
5.392342234083899e-22
-3.512907704586679e-17
0
-3.790247803348649e-17
1.841429768077246e-32
-4.094841034167443e-17
1.078468446779951e-21
-4.429244886320215e-17
1.078468446779951e-21
-4.795377193825771e-17
0
-5.196420056287734e-17
2.156936893559902e-21
-5.634850679992389e-17
1.078468446779951e-21
-6.11415226861644e-17
0
-6.637444837663648e-17
1.078468446779951e-21
-7.208671182993854e-17
1.078468446779951e-21
-7.831728987876469e-17
2.156936893559902e-21
-8.511554801555196e-17
0
-9.253117535652398e-17
2.156936893559902e-21
-1.006125639892694e-16
2.156936893559902e-21
-1.094205485153678e-16
2.156936893633559e-21
-1.190187377286217e-16
4.313873787119804e-21
-1.294726852226177e-16
2.156936893633559e-21
-1.408691992704211e-16
2.156936893633559e-21
-1.532748160743389e-16
4.313873787119804e-21
-1.667962799495062e-16
-5.094644416664677e-27
-1.815125726742709e-16
4.31387378697249e-21
-1.975502845448683e-16
4.313873787119804e-21
-2.15009375571776e-16
8.627747574239608e-21
-2.340144049710376e-16
4.313873787119804e-21
-2.547156681962577e-16
4.313873787119804e-21
-2.772564169533178e-16
8.627747574092294e-21
-3.017994342709867e-16
8.62774757394498e-21
-3.285219629656352e-16
8.627747574239608e-21
-3.576273764123663e-16
1.725549514818459e-20
-3.892946186115431e-16
8.627742479153294e-21
-4.238082551466024e-16
8.627747574239608e-21
-4.613330861032078e-16
8.627747574534238e-21
-5.022141623847418e-16
0
-5.46737974607374e-16
1.725549005398212e-20
-5.951782908597302e-16
0
-6.479327040757788e-16
1.725549514847922e-20
-7.053868013334303e-16
1.725549514847922e-20
-7.678715565578773e-16
1.725549514847922e-20
-8.359669448377561e-16
0
-9.101035846602909e-16
1.725549514847922e-20
-9.907884493820042e-16
3.451099029636918e-20
-1.078597173139846e-15
3.451099029695843e-20
-1.174258129262647e-15
1.725549514847922e-20
-1.278330768958897e-15
3.451099029695843e-20
-1.391750145624143e-15
-5.09479172205845e-26
-1.515102048348675e-15
3.451099029695843e-20
-1.649436031409732e-15
3.451099029460167e-20
-1.795577435893135e-15
0
-1.954611451665988e-15
3.451099029578008e-20
-2.127979479413739e-15
1.035329708885197e-19
-2.3166583829247e-15
1.035329708908765e-19
-2.521627831155772e-15
-6.902198059156209e-20
-2.745092000277263e-15
0
-2.987795521312011e-15
0
-3.251957863324753e-15
-6.902198059156846e-20
-3.538961531466553e-15
2.070659417794194e-19
-3.850566468173798e-15
0
-4.188204252563569e-15
0
-4.553585081673602e-15
-6.902198059393773e-20
-4.948737055251675e-15
0
-5.37336226094461e-15
-4.627367679714398e-30
-5.827869509851868e-15
1.380439611833658e-19
-6.31140308040407e-15
0
-6.823389504101067e-15
-1.380439611835916e-19
-7.357863498465263e-15
-4.908533894418327e-26
-7.91036223661456e-15
4.288404009502245e-30
-8.47180276051937e-15
-2.760879223726256e-19
-9.032381595701364e-15
2.760879223691117e-19
-9.577152544138652e-15
2.760879223774852e-19
-1.009256548283926e-14
-2.760879223707634e-19
-1.055836804640133e-14
2.760879223717675e-19
-1.095848857114559e-14
0
-1.127674054082728e-14
-2.760879223740561e-19
-1.149782009282032e-14
-3.733059445578307e-25
-1.16130777426316e-14
0
-1.161587169023477e-14
-5.521758447628457e-19
-1.150180930598957e-14
0
-1.126752044203195e-14
0
-1.090997304258642e-14
5.52175844766113e-19
-1.042218192536291e-14
-5.521758447638334e-19
-9.793538287664982e-15
-5.521758447653906e-19
-9.017401694410922e-15
-5.521758447667045e-19
-8.088365900224571e-15
1.205478070790858e-30
-7.009777590054016e-15
-1.577721810442024e-30
-5.812382683491002e-15
-1.104351689539408e-18
-4.5562216374901e-15
1.104351689539829e-18
-3.306092518449007e-15
0
-2.164380240953654e-15
1.104351689540136e-18
-1.212972254977984e-15
1.104351689540303e-18
-5.261753300877487e-16
3.286920438420886e-33
-1.359087883314736e-16
-1.09599690724475e-17
3.030213522573989e-23
-1.778360682136437e-19
6.060427045147978e-23
-1.791203507250927e-19
-2.276509379576475e-33
-1.821827189813519e-19
0
-1.85588203903686e-19
1.212085409029596e-22
-1.913273328970889e-19
2.424170818059191e-22
-1.97953272678267e-19
3.636256227043256e-22
-2.060087758008441e-19
2.424170818059191e-22
-2.149787402427882e-19
2.424170817968131e-22
-2.260491168915025e-19
2.42416566709107e-22
-2.387519572488729e-19
4.848341636027322e-22
-2.531789977000541e-19
4.848341636027322e-22
-2.694344262699212e-19
4.848341636118383e-22
-2.876356351766418e-19
-5.15097114844991e-28
-3.08735172625063e-19
4.848341636118383e-22
-3.304161712902599e-19
0
-3.553044476078962e-19
0
-3.837793232776219e-19
0
-4.129769957450514e-19
9.696683272054644e-22
-4.485573773480724e-19
0
-4.838876361264494e-19
9.696683272236765e-22
-5.2250884695626e-19
9.69667812089532e-22
-5.677002472981008e-19
9.696683271872524e-22
-6.139608347721647e-19
9.696683272236765e-22
-6.661651173023316e-19
9.696683272236765e-22
-7.231802586216132e-19
9.696678121259561e-22
-7.875124541714724e-19
-9.696688423213969e-22
-8.556033644540642e-19
3.878673308821858e-21
-9.298732037722836e-19
1.939336654447353e-21
-1.0081698750275e-18
0
-1.096220335172759e-18
1.939336654374505e-21
-1.192187393028732e-18
-7.28483001464472e-32
-1.296764095770618e-18
3.878673308821858e-21
-1.410705667503897e-18
0
-1.5348349621247e-18
3.878673308821858e-21
-1.670048407120815e-18
3.878673308894706e-21
-1.817322476060922e-18
-1.456966002928944e-31
-1.972446819309565e-18
0
-2.152401554544878e-18
7.757346617643715e-21
-2.348873415508972e-18
3.878673308749009e-21
-2.556568447834214e-18
1.456966002928944e-31
-2.775325437243125e-18
3.878673308894706e-21
-3.020924437269203e-18
3.878673309040403e-21
-3.288339711526862e-18
7.757346617789412e-21
-3.579502458439527e-18
7.757346617498019e-21
-3.896515374357528e-18
0
-4.241667837967536e-18
7.757346617789412e-21
-4.61745244428879e-18
7.757341466749049e-21
-5.039987226399018e-18
7.757346617498019e-21
-5.472014147023249e-18
7.757346617789412e-21
-5.972847883443915e-18
7.757346617789412e-21
-6.484930675898506e-18
7.757341466749049e-21
-7.040905114348448e-18
1.551469323499604e-20
-7.706009567819196e-18
1.551469323557882e-20
-8.411424245185952e-18
1.551469323557882e-20
-9.108510454547419e-18
5.827864011715776e-31
-9.942441392070123e-18
1.551469323557882e-20
-1.079509758028507e-17
3.102938647057486e-20
-1.175215561866061e-17
0
-1.2828202004845e-17
5.827864011715776e-31
-1.396555101050484e-17
3.102938646999208e-20
-1.516331981199493e-17
3.102938647115765e-20
-1.655175693471735e-17
0
-1.79713670689363e-17
-3.102938646999203e-20
-1.956478203335442e-17
3.102938647115749e-20
-2.135628703764308e-17
3.102938646999192e-20
-2.331168314462079e-17
3.102938647232234e-20
-2.544594841475959e-17
6.205877294114818e-20
-2.77021425301349e-17
6.205877294231242e-20
-3.035785407133822e-17
-6.205877294231099e-20
-3.344044873192506e-17
-6.205877294230871e-20
-3.668919181081997e-17
6.205877293997912e-20
-4.076587205180002e-17
0
-4.550119291223475e-17
6.20587729376531e-20
-5.142680958008402e-17
0
-5.870966122454152e-17
6.205877293996012e-20
-6.8542665328053e-17
0
-8.154696114170681e-17
1.241175458844311e-19
-9.931774856148918e-17
-1.241175458798274e-19
-1.241700663683476e-16
0
-1.580315859189876e-16
0
-2.049932216234574e-16
4.300319096091521e-30
-2.691516519731901e-16
1.241175458836716e-19
-3.548700945966844e-16
0
-4.686532338558091e-16
0
-6.16908841693053e-16
4.964701835305007e-19
-8.040032312637283e-16
0
-1.035993154662762e-15
2.482350917569418e-19
-1.314625843986524e-15
0
-1.642379329657711e-15
2.482350917661296e-19
-2.013169516138426e-15
-4.964701835149218e-19
-2.420253109882254e-15
0
-2.851608671531559e-15
6.754621500954912e-30
-3.290784373656871e-15
0
-3.712690023656624e-15
-4.964701835104916e-19
-4.09128529319484e-15
4.964701835086524e-19
-4.395529623338547e-15
-9.929403670111462e-19
-4.596290474610946e-15
4.964701835034206e-19
-4.65796764413233e-15
-9.929403670072537e-19
-4.549036167690801e-15
4.964701835012224e-19
-4.253635244424219e-15
0
-3.773936779823902e-15
8.907554388120597e-31
-3.137545488264386e-15
0
-2.403062695503906e-15
-1.985880734005356e-18
-1.654104582127522e-15
-9.92940367002527e-19
-9.734357172302311e-16
-1.985880734004922e-18
-4.374005819534361e-16
9.929403670024448e-19
-1.198010800847805e-16
-6.575981443468501e-18
0
0
5.497369370162957e-23
0
-2.507721281754214e-35
0
0
0
-5.015442563508427e-35
0
-1.099473874033093e-22
0
-5.015442563508427e-35
0
0
0
0
0
-1.003088512701685e-34
0
-1.003088512701685e-34
0
2.198947748065183e-22
0
0
0
0
0
0
0
-2.006177025403371e-34
0
-4.012354050806742e-34
0
-2.006177025403371e-34
0
-4.012354050806742e-34
0
8.795790992260731e-22
0
0
0
-8.795790992264744e-22
0
-4.012354050806742e-34
0
-4.012354050806742e-34
0
-8.795790992264744e-22
0
-8.795790992264744e-22
0
8.795790992256719e-22
0
0
0
0
0
-1.759158198452949e-21
0
-8.024708101613483e-34
0
-8.024708101613483e-34
0
-8.024708101613483e-34
0
-1.759158198453751e-21
0
-1.604941620322697e-33
0
0
0
3.518316396904292e-21
0
0
0
3.518316396904292e-21
0
-3.518316396907502e-21
0
0
0
-1.604941620322697e-33
0
-3.518316396904292e-21
0
-7.036632793811795e-21
0
-3.209883240645393e-33
0
7.036632793808585e-21
0
0
0
-3.209883240645393e-33
0
-3.209883240645393e-33
0
-7.036632793811795e-21
0
7.036632793808585e-21
0
7.036632793805375e-21
0
0
0
0
0
-6.419766481290787e-33
0
0
0
-6.419766481290787e-33
0
-6.419766481290787e-33
0
-1.407326558762359e-20
0
1.407326558762359e-20
0
2.814653117523434e-20
0
0
0
0
0
0
0
-2.814653117524718e-20
0
0
0
1.294224922628223e-32
0
-2.814653117524759e-20
0
-2.619264724366641e-32
0
5.629306235046919e-20
-1.73716616789221e-19
2.660351229846902e-32
-2.836793181248967e-19
-5.629306235049744e-20
-3.08832364028788e-19
0
-4.482876148988646e-19
1.125861247009723e-19
-9.760723051973246e-19
-1.688791870514505e-19
-1.527513810140786e-18
5.629306235047536e-20
-2.458281245942829e-18
-8.482387120760301e-28
-3.778237581784086e-18
0
-5.912790898068282e-18
1.125861247010656e-19
-9.422371677838546e-18
-2.251722494020855e-19
-1.411721750818719e-17
1.125861247011321e-19
-2.133963957568893e-17
-1.125861247011796e-19
-3.189856340469381e-17
-1.754393784007146e-31
-4.69141410138896e-17
2.251722494026126e-19
-6.733769448400058e-17
-2.251722494027725e-19
-9.458647648314935e-17
-2.251722494029491e-19
-1.322251370869055e-16
2.251722494024569e-19
-1.802127395904129e-16
2.251722494025547e-19
-2.424843401255631e-16
0
-3.207090348826826e-16
0
-4.163622182386338e-16
4.503444988056189e-19
-5.316282472134523e-16
2.2517224940395e-19
-6.677212012707659e-16
1.351033496421779e-18
-8.249945552136616e-16
4.503444988057668e-19
-1.001572200846261e-15
0
-1.192080817850272e-15
-4.503444988075829e-19
-1.387937115681747e-15
0
-1.572131948419891e-15
4.503444988067357e-19
-1.72558978425347e-15
4.503444988048736e-19
-1.827063539311436e-15
0
-1.849648127961955e-15
9.006889976101678e-19
-1.772377616033305e-15
1.037023398321789e-30
-1.589838932890997e-15
0
-1.310826623941737e-15
-9.006889976074216e-19
-9.698358469738256e-16
9.006889976075071e-19
-6.098838088754851e-16
0
-2.959158271143754e-16
-9.006889976070948e-19
-8.25520047643025e-17
-6.575981443468499e-18
-2.513360127636882e-23
1.896918060945533e-21
-5.026720255273785e-23
1.432962805800741e-21
-5.026720255273785e-23
1.938114031716509e-21
-2.010688102109506e-22
1.484705631229487e-21
-1.005344051054753e-22
2.035397158479669e-21
-1.005344051054753e-22
1.579414409667023e-21
-1.005344051054753e-22
2.191582721285575e-21
-2.010688102109506e-22
2.293106562589741e-21
-2.010688102109506e-22
2.411190580176026e-21
-4.02137620421902e-22
1.910015657990983e-21
-2.010688102109506e-22
2.700575975467244e-21
-4.021376204219011e-22
2.873967213545826e-21
-4.021376204219011e-22
2.301085081413134e-21
-4.021376204219011e-22
2.463312547540396e-21
-8.042752408438022e-22
2.643329370322079e-21
-4.021376203034749e-22
3.789914107699133e-21
-8.042752408438039e-22
4.082758758390998e-21
-8.042752407253777e-22
4.405087954495456e-21
-4.021376204219011e-22
3.569422101001862e-21
-1.608550481687608e-21
5.147740809855845e-21
-8.042752408438022e-22
4.18007077565008e-21
-1.608550481687608e-21
4.529523249718889e-21
-1.608550481569187e-21
4.911686678088504e-21
-8.042752408438055e-22
5.329320938507467e-21
-1.608550481569184e-21
5.785442068884091e-21
-1.608550481687604e-21
6.283344049329284e-21
-1.608550481687608e-21
9.10216345163898e-21
-1.608550481687611e-21
7.419201093927795e-21
-1.608550481687604e-21
8.06535900022e-21
-1.608550481687604e-21
8.769762681382073e-21
-3.217100963375216e-21
9.537499144229858e-21
-3.217100963375216e-21
1.383215035488659e-20
-3.217100963375216e-21
1.504752712004157e-20
-1.608550481687604e-21
1.22786796969976e-20
-3.217100963375216e-21
1.336038725696652e-20
-3.217100963375209e-21
1.453857980848738e-20
-3.217100963375209e-21
2.636960988381771e-20
-3.217100963375209e-21
1.721921243635903e-20
-6.434201926750431e-21
1.874101129395456e-20
-6.434201926750431e-21
2.039815250931554e-20
-3.217100963375209e-21
2.960347133059333e-20
-9.65130289012564e-21
2.416739549815362e-20
-3.217100963375209e-21
2.63067176922149e-20
-6.434201926750418e-21
3.818135955668829e-20
-6.434201926750418e-21
4.156283065981363e-20
-6.434201926750418e-21
4.524445693832038e-20
-6.434201926750418e-21
3.693961955431033e-20
-6.434201926750418e-21
5.361688538722359e-20
-1.286840385350086e-20
4.377611317618598e-20
-1.286840385231663e-20
6.354093492907019e-20
-1.286840385350084e-20
6.917259387743495e-20
-1.286840385350084e-20
7.53037980144219e-20
-1.286840385350084e-20
6.148411889217444e-20
-2.573680770700173e-20
6.693441043914551e-20
-1.286840385350084e-20
7.286808363637935e-20
-1.286840385350078e-20
7.932798983034671e-20
-2.573680770700167e-20
8.636078064228058e-20
-1.286840385350084e-20
1.253563265990465e-19
-2.573680770700173e-20
6.823511704704787e-20
-3.86052115605025e-20
1.485696916011154e-19
-2.573680770700167e-20
1.213065584959595e-19
-5.147361541400345e-20
1.760825205820994e-19
-2.573680770700167e-20
1.437709365514904e-19
-2.573680770700167e-20
1.565182562668354e-19
-5.147361541400345e-20
1.703959072152374e-19
-5.147361541400345e-20
1.855041099041442e-19
-5.147361541400334e-20
2.01951971545711e-19
-7.721042312100524e-20
2.93144365398253e-19
-5.147361541400334e-20
2.39352331705689e-19
5.147361541400355e-20
2.605749251838317e-19
5.147361541400355e-20
2.836793181248967e-19
5.147361541400355e-20
4.117764853717173e-19
0
1.120719037247161e-19
-5.147361541400376e-20
0
-1.544208462420127e-19
-2.656545756766586e-19
1.544208462420151e-19
-5.784191166924304e-19
0
-6.297062636306814e-19
-1.029472308280096e-19
-1.371081947378152e-18
0
-2.612142643361181e-18
0
-4.570322214880745e-18
-2.058944616560335e-19
-6.744652922886139e-18
1.417484439069005e-32
-1.047235855172967e-17
-1.869435999351877e-32
-1.546332022245523e-17
-1.029472308280307e-19
-2.268367250626291e-17
6.162975822039155e-32
-3.24607119621974e-17
-4.117889233122606e-19
-4.582226617717569e-17
4.117889233123152e-19
-6.258665113456629e-17
4.117889233123801e-19
-8.456891862230384e-17
4.11788923312307e-19
-1.136662633835902e-16
4.117889233126883e-19
-1.496338833373299e-16
-2.058944616563947e-19
-1.936719636006206e-16
-4.117889233124574e-19
-2.482841903544753e-16
0
-3.147360357371585e-16
4.117889233125453e-19
-3.920210979328301e-16
-4.11788923313132e-19
-4.787210596973366e-16
8.235778466251941e-19
-5.741551828974065e-16
8.235778466263364e-19
-6.71987396353628e-16
4.11788923313123e-19
-7.671891572034033e-16
-4.117889233125289e-19
-8.438880463616628e-16
-4.396256086387927e-31
-8.926079704609193e-16
7.132617351373318e-31
-8.949569674954934e-16
0
-8.380393215611758e-16
2.470733539873962e-18
-7.224238583560802e-16
8.23577846624471e-19
-5.586504154732576e-16
1.647155693248387e-18
-3.703472711277318e-16
1.647155693248212e-18
-1.895710767451467e-16
0
-5.939717415968107e-17
-6.575981443468499e-18
0
0
0
0
2.006177025403371e-37
0
-4.012354050806741e-37
0
9.260272198574832e-23
0
-4.012354050806741e-37
0
0
0
-8.024708101613483e-37
0
0
0
0
0
1.852054439714974e-22
0
0
0
0
0
0
0
0
0
0
0
1.604941620322697e-36
0
0
0
0
0
0
0
7.408217758859865e-22
0
0
0
0
0
0
0
0
0
0
0
0
0
1.481643551771973e-21
0
0
0
1.481643551771979e-21
0
0
0
-1.481643551771973e-21
0
0
0
1.481643551771979e-21
0
0
0
0
0
0
0
0
0
0
0
1.283953296258157e-35
0
-2.963287103543959e-21
0
0
0
2.963287103543946e-21
0
0
0
0
0
0
0
5.926574207087892e-21
0
0
0
0
0
-5.926574207087918e-21
0
-2.567906592516314e-35
0
5.926574207087918e-21
0
0
0
0
0
0
0
0
0
0
0
0
0
0
0
-1.185314841417584e-20
0
0
0
0
0
-1.027162637006526e-34
0
-1.027162637006526e-34
0
0
0
0
0
-1.027162637006526e-34
0
1.027162637006526e-34
0
0
0
0
0
0
0
0
0
0
0
0
0
0
0
0
-1.446047791731074e-19
0
-4.722796977230107e-19
0
-5.14155730266807e-19
0
-9.329080869147078e-19
9.482518731340812e-20
-1.828128885952298e-18
-9.482518731340936e-20
-2.211361614061029e-18
-4.519515602828713e-33
-3.490786183909889e-18
9.48251873134114e-20
-4.979713291977107e-18
1.896503746268425e-19
-6.84790113396616e-18
0
-1.025075114595707e-17
0
-1.454138336249856e-17
0
-1.877599534036989e-17
-4.437342591868192e-32
-2.585163626132037e-17
0
-3.468893642608608e-17
-3.793007492537911e-19
-4.607773550387619e-17
-7.683176524808814e-32
-6.050632774705634e-17
-3.793007492537607e-19
-7.825737519109314e-17
1.832458144419642e-31
-1.130843205326304e-16
3.793007492539645e-19
-1.77493807744907e-16
-3.793007492538133e-19
-2.451720146401382e-16
0
-2.997311491985084e-16
2.062542575109105e-31
-3.568722303505174e-16
3.793007492540467e-19
-4.114795846210068e-16
0
-4.622506469187827e-16
3.793007492538158e-19
-4.965722001195158e-16
7.586014985079025e-19
-5.097626510802034e-16
1.517202997015283e-18
-4.917638438383333e-16
0
-4.357477240877944e-16
1.446244992905188e-31
-3.245790123420044e-16
7.586014985074047e-19
-1.919689983368518e-16
7.586014985073323e-19
-9.247369597324229e-17
0
-3.02019529625497e-17
-2.191993814489501e-18
0
-9.484590304727666e-22
-4.293686827388889e-23
-9.553085372004941e-22
-1.480358027045144e-33
-4.845285079261666e-22
0
-9.898037541589132e-22
-8.587373654925803e-23
-1.017698579233913e-21
-8.587373654777757e-23
-1.052942939783937e-21
0
-1.095791360642788e-21
0
-1.14655328129487e-21
-1.717474730955551e-22
-1.205595290088013e-21
-1.717474730955547e-22
-6.366718859969943e-22
-3.434949461911103e-22
-6.751439938668112e-22
1.717474730955555e-22
-1.436983606772913e-21
-3.434949461911111e-22
-1.53405672094209e-21
-3.434949461911111e-22
-1.642208365026931e-21
-3.434949461911111e-22
-1.762219580214719e-21
-3.434949461911103e-22
-1.894957053849567e-21
-3.434949461911095e-22
-2.041379379195499e-21
-3.434949461911103e-22
-1.101271988623864e-21
-3.434949461911103e-22
-1.18980736700062e-21
0
-1.286935202463961e-21
-6.869898923822222e-22
-1.393356925216693e-21
1.604941620322697e-36
-3.01968216647926e-21
1.604941620322697e-36
-1.637228892696168e-21
-1.480398150585653e-32
-1.776440312806214e-21
-6.86989892382219e-22
-3.856961379315277e-21
-6.869898923822206e-22
-4.18889603288619e-21
-6.86989892382219e-22
-6.826622588729234e-21
0
-4.94613406261853e-21
-3.209883240645393e-36
-5.376906000146666e-21
1.373979784764444e-21
-5.846508454254715e-21
-1.373979784764438e-21
-6.358332762819906e-21
-1.373979784764441e-21
-6.916075177443297e-21
-2.747959569528882e-21
-7.523763560020785e-21
-1.373979784764438e-21
-1.22786796969976e-20
-1.373979784764441e-21
-8.906924837977678e-21
0
-9.692386538991587e-21
6.419766481290786e-36
-1.054784395352709e-20
-2.747959569528889e-21
-1.721921243635903e-20
6.419766481290786e-36
-1.249400752930304e-20
-2.747959569528876e-21
-1.359876833954369e-20
0
-1.480173566529667e-20
-2.747959569528889e-21
-8.055798499384542e-21
-6.419766481290786e-36
-8.768905897404966e-21
-5.495919139057765e-21
-9.545339889172072e-21
-5.495919139057765e-21
-2.078141532990681e-20
-5.495919139057765e-21
-2.262222846916019e-20
-1.099183827811554e-20
-2.462641303620689e-20
0
-1.34042213468059e-20
1.283953296258157e-35
-2.918407545079066e-20
-5.495919139057778e-21
-3.17704674645351e-20
-1.099183827811553e-20
-3.458629693871747e-20
1.283953296258157e-35
-3.765189900721095e-20
0
-4.098941259478296e-20
-1.099183827811553e-20
-4.462294029276367e-20
-1.099183827811553e-20
-7.286808363637936e-20
0
-2.644266327678224e-20
-1.099183827811553e-20
-2.878692688076019e-20
2.567906592516314e-35
-3.133908164976163e-20
-2.198367655623106e-20
-6.823511704704786e-20
0
-3.714242290027884e-20
0
-8.08710389973063e-20
-2.198367655623111e-20
-8.804126029104972e-20
-2.198367655623111e-20
-9.584729103432693e-20
-4.396735311246217e-20
-1.043455041778902e-19
-2.198367655623106e-20
-1.135972714768249e-19
-2.198367655623106e-20
-6.183470330138139e-20
-2.198367655623111e-20
-1.346346476971407e-19
5.135813185032629e-35
-2.198582740486897e-19
-4.396735311246212e-20
-7.978411056856301e-20
-4.396735311246212e-20
-1.737166167892211e-19
-4.396735311246212e-20
-1.891195454165978e-19
-4.396735311246212e-20
-1.029441213429293e-19
-1.027162637006526e-34
-2.241438074494323e-19
-8.793470622492475e-20
-1.220090381496655e-19
1.31902059337387e-19
-1.328272878383292e-19
0
-2.169071687596613e-19
0
-5.50992980676846e-19
1.758694124498495e-19
-8.56926217111345e-19
0
-1.026198895606178e-18
0
-1.523440738293582e-18
2.05432527401305e-34
-1.990225452654926e-18
0
-2.76855455965267e-18
0
-3.538217339036366e-18
-1.758694124498538e-19
-5.13592585047462e-18
0
-6.833834097304716e-18
0
-9.468807770929291e-18
3.517388248997159e-19
-1.325364376967286e-17
-1.758694124498604e-19
-1.743482445530909e-17
-1.758694124498715e-19
-2.334412702887554e-17