/*--------------------------------*- C++ -*----------------------------------*\
| =========                 |                                                 |
| \\      /  F ield         | OpenFOAM: The Open Source CFD Toolbox           |
|  \\    /   O peration     | Version:  v1812                                 |
|   \\  /    A nd           | Web:      www.OpenFOAM.com                      |
|    \\/     M anipulation  |                                                 |
\*---------------------------------------------------------------------------*/
FoamFile
{
    version     2.0;
    format      ascii;
    class       volScalarField;
    location    "0.00000067";
    object      nut;
}
// * * * * * * * * * * * * * * * * * * * * * * * * * * * * * * * * * * * * * //

dimensions      [0 2 -1 0 0 0 0];


internalField   nonuniform List<scalar> 
44064
(
1.670013189807066e-13
2.528793119425369e-11
4.76571837751147e-10
3.453839411017616e-09
1.493999111632466e-08
4.649512344246067e-08
1.137828665473681e-07
2.336060112515841e-07
4.20342557476507e-07
6.580066855955058e-07
9.079473158445395e-07
1.194368346826789e-06
1.518460848178576e-06
1.877691484598835e-06
2.268575983922027e-06
2.687515592248553e-06
3.131328054731157e-06
3.597599269809839e-06
4.084792365438107e-06
4.592139642828037e-06
5.119404268595315e-06
5.666627225936144e-06
6.2338931729525e-06
6.821165506202718e-06
7.428113028632594e-06
8.053928356117433e-06
8.697191182236839e-06
9.355767747051779e-06
1.002688555091024e-05
1.070763265339898e-05
1.139560766698939e-05
1.208965758684424e-05
1.279046945735069e-05
1.350005237925076e-05
1.421767124326391e-05
1.492730875032848e-05
1.557020640227702e-05
1.61118683914591e-05
1.659170404330702e-05
1.699558734316578e-05
1.731233923316247e-05
1.75280218487473e-05
1.762702966733604e-05
1.759367842926314e-05
1.738054995836509e-05
1.695650891570323e-05
1.633712312055807e-05
1.556397029988608e-05
1.467900700958248e-05
1.369819375323819e-05
1.262051571040846e-05
1.145365820017199e-05
1.021770809923911e-05
8.937871530697738e-06
7.638785861589342e-06
6.342428084373413e-06
5.070365682609641e-06
3.849010994454274e-06
2.722149297742738e-06
1.756623953354562e-06
1.019820419502683e-06
5.336162554920788e-07
2.566237334410573e-07
1.173021789066747e-07
5.372709248880831e-08
2.690451346257011e-08
1.634384522613705e-08
1.245234100830672e-08
1.111064447938255e-08
1.067854666185299e-08
1.054884729667055e-08
1.051265358672901e-08
1.050328762638127e-08
1.050104470474367e-08
1.050054794910898e-08
1.050044538708457e-08
1.050042436121008e-08
1.050041865625632e-08
1.05004154584357e-08
1.050041251195555e-08
1.050040946718915e-08
1.050040628896173e-08
1.050040299037229e-08
1.050039959409979e-08
1.050039613295942e-08
1.050039261321751e-08
1.050038907688417e-08
1.050038556666717e-08
1.050038216443664e-08
1.050037844150201e-08
1.050037543897945e-08
1.05003727599716e-08
1.050036956900336e-08
1.05003667965718e-08
1.050036439606324e-08
1.050036219267079e-08
1.050035957620494e-08
1.050035800681059e-08
1.050035707061175e-08
1.050035604337795e-08
1.050035529223555e-08
1.05003548550595e-08
1.05003549934633e-08
1.050049633846647e-08
1.05559767749965e-08
2.55963763346656e-08
2.916362108761309e-06
8.532147409702834e-05
2.984015378731043e-14
4.522352231320822e-12
8.557852502025331e-11
6.27966994853246e-10
2.786843994761648e-09
9.083772504845337e-09
2.393141097980345e-08
5.360915499992705e-08
1.052995220608632e-07
1.855512334204274e-07
2.980277036236956e-07
4.411455320104587e-07
6.102818761359692e-07
7.974805031840533e-07
9.987441661268277e-07
1.223064992914806e-06
1.472438091243654e-06
1.747846374617459e-06
2.048755898501768e-06
2.363149839407374e-06
2.699115196786035e-06
3.061410072972112e-06
3.450791745425758e-06
3.865752235209159e-06
4.298871145448966e-06
4.749133434942227e-06
5.211957583079687e-06
5.695856513831121e-06
6.202144341812413e-06
6.732037951097476e-06
7.286445765780113e-06
7.865831278359711e-06
8.470027617833398e-06
9.097964304493189e-06
9.747300478096884e-06
1.040972461244155e-05
1.107795203321161e-05
1.173750944671883e-05
1.238222256588576e-05
1.300198383490573e-05
1.357726112071349e-05
1.408780288887363e-05
1.451632621389309e-05
1.48442164199859e-05
1.505026555627909e-05
1.511169684279022e-05
1.500801523200912e-05
1.472146426146115e-05
1.424309338056152e-05
1.358868787944661e-05
1.278184312621097e-05
1.187448325303201e-05
1.091279322285611e-05
9.948675775990334e-06
8.96855317479788e-06
7.907935052681766e-06
6.776263292917472e-06
5.612528542109485e-06
4.45477653239078e-06
3.324765423013226e-06
2.253792208215666e-06
1.331430377009966e-06
6.724051482400492e-07
2.982293133752058e-07
1.235298104516291e-07
5.181733577099916e-08
2.468883236043397e-08
1.504108338963124e-08
1.180167835350205e-08
1.077676128007301e-08
1.047236826795742e-08
1.038783827747541e-08
1.036596804390444e-08
1.036071181116762e-08
1.03595373836383e-08
1.035928826152275e-08
1.035923149396083e-08
1.035921063372636e-08
1.035919506035484e-08
1.035917931106775e-08
1.035916252651337e-08
1.035914462256988e-08
1.035912564359203e-08
1.035910566281793e-08
1.035908479553073e-08
1.035906317369719e-08
1.035904084827064e-08
1.035901790364791e-08
1.035899470676428e-08
1.035897081680929e-08
1.035894537718574e-08
1.035892141857435e-08
1.03588991943432e-08
1.035887746830707e-08
1.035885594188209e-08
1.035883461811728e-08
1.035881381137876e-08
1.035879746622608e-08
1.035878338600494e-08
1.035877130327861e-08
1.035876219363624e-08
1.035875653368609e-08
1.0358757433153e-08
1.035996714644135e-08
1.070985548401289e-08
8.135783925790114e-08
9.122493632431616e-06
0.0001360703755703857
2.29788537060078e-14
3.482733615519232e-12
6.59386793654808e-11
4.847473280003505e-10
2.161053728911215e-09
7.107060396848521e-09
1.901062773114257e-08
4.356085453069239e-08
8.797082429003205e-08
1.596400455229968e-07
2.644905288024947e-07
4.053948284623944e-07
5.792198444412667e-07
7.746913394652768e-07
9.817373807287271e-07
1.213595873272013e-06
1.472491915390542e-06
1.758903418239748e-06
2.072978048980644e-06
2.414703321486936e-06
2.782780420849561e-06
3.17419877450435e-06
3.576874513326129e-06
3.983134561114083e-06
4.406871406677054e-06
4.846615973905321e-06
5.298568941340279e-06
5.762134819817062e-06
6.240734509664345e-06
6.735368658144691e-06
7.246893952367108e-06
7.775874409801614e-06
8.322392382949567e-06
8.885822319514513e-06
9.464566516238038e-06
1.005575895896911e-05
1.065498634642637e-05
1.125599320925101e-05
1.18504588152895e-05
1.242772715997215e-05
1.297451461584379e-05
1.348021763834054e-05
1.392900406358486e-05
1.42943569120871e-05
1.455048136569336e-05
1.46721339954217e-05
1.463550313891248e-05
1.442051434531866e-05
1.400484460467169e-05
1.33803010068579e-05
1.255499957877959e-05
1.155941957133365e-05
1.044021156863897e-05
9.280297453575267e-06
8.176169646986322e-06
7.179608238296032e-06
6.277911384367973e-06
5.451651761808326e-06
4.645473089788782e-06
3.822611920810875e-06
2.965174976488866e-06
2.075995664436798e-06
1.238105994789631e-06
6.082875278627465e-07
2.549460993935554e-07
9.936322763909858e-08
4.034360125133613e-08
1.983059628672036e-08
1.313348713440484e-08
1.106743738379691e-08
1.046611842635509e-08
1.03016537713393e-08
1.025956445845616e-08
1.02495247105219e-08
1.024729494219385e-08
1.024682738936543e-08
1.02467258922126e-08
1.024669340884998e-08
1.0246671867118e-08
1.02466508780392e-08
1.024662876098687e-08
1.024660529144886e-08
1.02465804771295e-08
1.024655436669395e-08
1.024652704427314e-08
1.024649859898274e-08
1.024646912439542e-08
1.024643867600211e-08
1.024640765899876e-08
1.024637565726146e-08
1.024634155714975e-08
1.024630937190134e-08
1.02462787160258e-08
1.024624811977357e-08
1.024621729215165e-08
1.024618650463546e-08
1.024615635680896e-08
1.024613060180642e-08
1.024610745601045e-08
1.024608739462823e-08
1.024607176110133e-08
1.024606148917234e-08
1.024607043279139e-08
1.025066269458632e-08
1.133403487577609e-08
1.96554632194495e-07
1.754566806226459e-05
0.000177517832498382
3.41198047310813e-14
5.1711512714524e-12
9.788640606889422e-11
7.191035919393782e-10
3.200643957923363e-09
1.049847267662571e-08
2.800582917394714e-08
6.411080891191227e-08
1.296169581689232e-07
2.350581666497832e-07
3.871868080470732e-07
5.872934449798019e-07
8.287379314202773e-07
1.079075824329745e-06
1.36281050313708e-06
1.684444486044676e-06
2.045057497977328e-06
2.444858827047704e-06
2.883662889597968e-06
3.360954687429176e-06
3.875906425411761e-06
4.427175716012478e-06
5.01199594001938e-06
5.623119355554688e-06
6.240692925252262e-06
6.856497664381321e-06
7.493633413567987e-06
8.149617670375658e-06
8.822784665837884e-06
9.511231756677198e-06
1.021282073768955e-05
1.092517761774982e-05
1.16459087026302e-05
1.237272344384298e-05
1.310363988741466e-05
1.383717427561745e-05
1.457242399848532e-05
1.530894076670574e-05
1.604629249876714e-05
1.678326647404596e-05
1.75167689086298e-05
1.824054880436203e-05
1.894378377786962e-05
1.960985743225953e-05
2.015814383408418e-05
2.059706723473464e-05
2.096691216508731e-05
2.126930418420128e-05
2.139679059195446e-05
2.117348227010438e-05
2.065905679137667e-05
1.981009661159385e-05
1.859757973386043e-05
1.701853093465313e-05
1.510741277831245e-05
1.295241807179343e-05
1.072403587048623e-05
8.627497806391934e-06
6.815485753012633e-06
5.289380690652662e-06
4.012029837560314e-06
2.924768076773128e-06
1.944878019853692e-06
1.082387380582248e-06
4.81759223306545e-07
1.827762125056551e-07
6.697824605610507e-08
2.769561950866034e-08
1.529415961460937e-08
1.158391022547616e-08
1.053045247023669e-08
1.02476764366797e-08
1.0176293512488e-08
1.015943179344623e-08
1.01557147762517e-08
1.015494327357981e-08
1.015478152777586e-08
1.015473502597632e-08
1.015470736394495e-08
1.015468131399728e-08
1.015465407740796e-08
1.015462526148479e-08
1.015459485195561e-08
1.015456289617179e-08
1.015452949174955e-08
1.015449476404006e-08
1.015445878647524e-08
1.015442155650633e-08
1.015438356820171e-08
1.015434452146446e-08
1.015430319619934e-08
1.015426350874735e-08
1.015422535148701e-08
1.015418721096644e-08
1.015414885427205e-08
1.015411066508098e-08
1.015407317273614e-08
1.015404010434748e-08
1.015401050273912e-08
1.015398508865634e-08
1.015396528691178e-08
1.0153952497056e-08
1.015399288706814e-08
1.016681511553251e-08
1.270445880025069e-08
3.803815232395684e-07
2.49855327819524e-05
0.0001911204984311452
4.074123979029855e-14
6.17453168060056e-12
1.168568037704153e-10
8.578303376042289e-10
3.81101026230553e-09
1.245618607846732e-08
3.304858834744741e-08
7.515938416788052e-08
1.509883926719726e-07
2.72213753430586e-07
4.455639114008323e-07
6.710638750593363e-07
9.315146110189793e-07
1.210062516762174e-06
1.527285793638548e-06
1.887568094878043e-06
2.292258946286406e-06
2.741982601838523e-06
3.237277251956582e-06
3.77878883874335e-06
4.36689345236725e-06
4.999938346165275e-06
5.669134957085883e-06
6.345936762488698e-06
7.055901639533694e-06
7.809370660913984e-06
8.606091019352986e-06
9.445992495581612e-06
1.032962080702213e-05
1.125746501216161e-05
1.222973563276101e-05
1.324625180781433e-05
1.430637592815963e-05
1.540896125103683e-05
1.655231120621286e-05
1.773415909284754e-05
1.895166794273814e-05
2.020142447384308e-05
2.147940071030689e-05
2.278082729304877e-05
2.409988382699704e-05
2.542907862474527e-05
2.675801234844226e-05
2.80710891241664e-05
2.914231267996671e-05
3.001823259596775e-05
3.075026065109313e-05
3.133931941763892e-05
3.174605515544773e-05
3.190815584913895e-05
3.1769047758827e-05
3.131847386763955e-05
3.064071621639891e-05
2.993727212721806e-05
2.941956626963724e-05
2.887545283802978e-05
2.595250724960764e-05
2.219142832046539e-05
1.803672452483848e-05
1.385651714158069e-05
1.009589607383574e-05
6.952393115234706e-06
4.477710088567853e-06
2.607707350572748e-06
1.233919016174003e-06
4.359129720938154e-07
1.316298934247983e-07
4.291583410692567e-08
1.885371338461921e-08
1.238279824092544e-08
1.066326751570072e-08
1.021969389516244e-08
1.011035563666958e-08
1.008490142114146e-08
1.007934403151527e-08
1.007820192612609e-08
1.00779688367049e-08
1.007790742398249e-08
1.007787453054054e-08
1.007784462615392e-08
1.007781355530492e-08
1.00777807195212e-08
1.007774607530683e-08
1.007770966493573e-08
1.007767153841468e-08
1.007763171129772e-08
1.007759055015308e-08
1.007754811491378e-08
1.007750472902342e-08
1.007746018100567e-08
1.007741319786403e-08
1.007736759977081e-08
1.007732345717273e-08
1.007727926854366e-08
1.007723489369811e-08
1.007719077047512e-08
1.007714741064249e-08
1.007710860150483e-08
1.007707396272239e-08
1.007704439728208e-08
1.007702142223164e-08
1.007700700355914e-08
1.007711877113981e-08
1.01055587982134e-08
1.505104297441398e-08
6.485756306873809e-07
3.362018593533062e-05
0.0002330374026797091
5.642302690823171e-14
8.550654437249459e-12
1.617494169299165e-10
1.185290860834214e-09
5.243166917234429e-09
1.699976142121411e-08
4.455059383601198e-08
9.970634440318581e-08
1.967238603780623e-07
3.483010986598654e-07
5.604476466745587e-07
8.31292817872195e-07
1.127454005018792e-06
1.459011939799976e-06
1.840137910121275e-06
2.275074247736742e-06
2.765798451432464e-06
3.31367738608463e-06
3.920077902482008e-06
4.586517022209167e-06
5.313886113224701e-06
6.099381975036955e-06
6.928306215325643e-06
7.755679719272798e-06
8.642609292756212e-06
9.595347846892133e-06
1.061748695398243e-05
1.171283330046478e-05
1.288584120085072e-05
1.414175262973646e-05
1.548599615756506e-05
1.692405732425894e-05
1.846135038927226e-05
2.010306141022646e-05
2.185394881737898e-05
2.371807953688457e-05
2.569847676419079e-05
2.779663295570721e-05
3.001181568759118e-05
3.234009927449545e-05
3.477288588923108e-05
3.709072228315601e-05
3.931768480594944e-05
4.154767941359907e-05
4.380109325745998e-05
4.603878046408867e-05
4.815806288831778e-05
5.001776651037937e-05
5.152596003833277e-05
5.267087930439221e-05
5.345147831477857e-05
5.381183254588301e-05
5.365219562506889e-05
5.284272016448267e-05
5.126008218028281e-05
4.875624640227499e-05
4.527842383226368e-05
4.126454085240572e-05
3.761818894426083e-05
3.519136907608893e-05
3.182235537851754e-05
2.426059739772816e-05
1.722670280760784e-05
1.123485861758111e-05
6.526775632884294e-06
3.095290507962856e-06
9.845776353076209e-07
2.050042969911369e-07
4.292945186574207e-08
1.578362598037558e-08
1.11265802509799e-08
1.024395234701911e-08
1.006160388113496e-08
1.002271209089604e-08
1.001456220832967e-08
1.001292393950108e-08
1.001259884724151e-08
1.001251986223269e-08
1.001248211362973e-08
1.001244925859351e-08
1.001241539232162e-08
1.001237965658556e-08
1.001234197265177e-08
1.001230237990465e-08
1.001226092120471e-08
1.00122175854116e-08
1.001217282729683e-08
1.001212670436258e-08
1.001207949626448e-08
1.001203106351197e-08
1.001198010368677e-08
1.001193035235132e-08
1.001188200182119e-08
1.001183356638626e-08
1.001178498972749e-08
1.001173672514405e-08
1.001168926767211e-08
1.001164636628741e-08
1.001160813127772e-08
1.001157566093529e-08
1.001155055660002e-08
1.001153538299019e-08
1.00117760432222e-08
1.006551168294517e-08
1.860611147365441e-08
1.028979512870882e-06
4.468783682901719e-05
0.0002964955698388909
7.474797009170571e-14
1.13269566826303e-11
2.141575958075134e-10
1.566404965956676e-09
6.898392940918318e-09
2.218939844816711e-08
5.74797931647875e-08
1.26794372600058e-07
2.462146371561629e-07
4.290362310942837e-07
6.801664505222181e-07
9.876946467091749e-07
1.314826172741942e-06
1.691597687899252e-06
2.125644600944886e-06
2.620296954471059e-06
3.177832584958577e-06
3.800410476883143e-06
4.490445018514604e-06
5.250271153206709e-06
6.080001640714355e-06
6.971126095540779e-06
7.891327046243891e-06
8.82928326205052e-06
9.842730042556194e-06
1.093934553800524e-05
1.212656416647804e-05
1.341218202826793e-05
1.480467355701034e-05
1.631419152536082e-05
1.795183415598474e-05
1.97295922437623e-05
2.166030034722662e-05
2.375754777233044e-05
2.60355249616501e-05
2.850877631524873e-05
3.119184006439169e-05
3.409874692889259e-05
3.724231586118321e-05
4.063317829586497e-05
4.427844996170755e-05
4.81800321879207e-05
5.233234465445257e-05
5.671940997903641e-05
6.071449017579028e-05
6.419931482684366e-05
6.74753661176809e-05
7.080477120324788e-05
7.427230112339881e-05
7.772463817667699e-05
8.08079987212946e-05
8.322574868571757e-05
8.488548593776011e-05
8.571977252890822e-05
8.557264762993675e-05
8.420023972855587e-05
8.132313867543082e-05
7.677216023940745e-05
7.076797491480699e-05
6.369116713658807e-05
5.604145973910695e-05
4.941023330068239e-05
4.524961480089155e-05
3.789493432533598e-05
2.641138519423195e-05
1.666174083391241e-05
9.031759503146141e-06
3.630568160471278e-06
8.347032815479077e-07
1.208750752694023e-07
2.22946331882686e-08
1.129243341148047e-08
1.011141245880926e-08
9.977026907677797e-09
9.959316312000172e-09
9.956575799250616e-09
9.956099377557078e-09
9.955996218778688e-09
9.95595312360787e-09
9.95591765806958e-09
9.95588147598048e-09
9.955843365321382e-09
9.955803201921772e-09
9.955761022588362e-09
9.955716877487706e-09
9.955670741575399e-09
9.95562308693378e-09
9.955573995189518e-09
9.955523729430797e-09
9.955472212574456e-09
9.955418126726051e-09
9.955365136225921e-09
9.95531352931556e-09
9.955261836183305e-09
9.955210075320212e-09
9.95515869957359e-09
9.955108186747276e-09
9.955062233892876e-09
9.955021351024023e-09
9.95498680623889e-09
9.954960302303224e-09
9.95494502465082e-09
9.955388289189645e-09
1.004667552064285e-08
2.374690686899276e-08
1.575218857433643e-06
5.906924890557304e-05
0.0003845665912539567
8.632628626019526e-14
1.308084057815631e-11
2.472244703401452e-10
1.805747643619752e-09
7.925849072908623e-09
2.533894450929916e-08
6.504476476964618e-08
1.418555759224457e-07
2.721183887947951e-07
4.688876670268399e-07
7.36547452895707e-07
1.055758519231994e-06
1.401710740764038e-06
1.801044266412682e-06
2.261272107213775e-06
2.786131891782899e-06
3.378448350111623e-06
4.041036125920697e-06
4.777042588318446e-06
5.58944856709996e-06
6.478444714311906e-06
7.433929375000229e-06
8.418176683492049e-06
9.4212585118238e-06
1.050607059656249e-05
1.16828411332961e-05
1.296162647356934e-05
1.435279979390822e-05
1.586708789664665e-05
1.751756178161612e-05
1.931871443542027e-05
2.12864885412986e-05
2.343832873759889e-05
2.579321473691317e-05
2.837166084954975e-05
3.119566402573957e-05
3.428856146635572e-05
3.76747653122443e-05
4.137934779517033e-05
4.542742579709268e-05
4.984330194101395e-05
5.464933843556252e-05
5.986456464080061e-05
6.550301830655611e-05
7.157183365274078e-05
7.806873681031137e-05
8.497843105635605e-05
9.174853056507327e-05
9.718683446299512e-05
0.0001018604353783819
0.0001063521597416804
0.0001109636578934433
0.0001154615062399027
0.0001192395404692943
0.0001218074940394184
0.0001229845501362305
0.0001225578341925326
0.0001201884399258051
0.0001154855824548935
0.0001081427929441674
9.825871872485226e-05
8.684544404671774e-05
7.522094781966294e-05
6.538050971843077e-05
5.90503158912931e-05
4.917504973990208e-05
3.295309796364126e-05
1.948761606458046e-05
9.292170647143441e-06
2.810340077369786e-06
4.288567881450231e-07
5.092391253890338e-08
1.33982995627953e-08
1.018357541956455e-08
9.928105371363553e-09
9.908323245168297e-09
9.906666479343813e-09
9.906475951141134e-09
9.906423775951584e-09
9.906385706555473e-09
9.906347496310721e-09
9.906307342561432e-09
9.906265051539031e-09
9.906220652794479e-09
9.906174208569474e-09
9.906125685047521e-09
9.906075551774663e-09
9.906023920123293e-09
9.905971043559776e-09
9.905916898305599e-09
9.905860157778911e-09
9.905804426237036e-09
9.905750073197144e-09
9.905695642648109e-09
9.905641221459203e-09
9.905587258244947e-09
9.90553421526114e-09
9.905485746583289e-09
9.905442701181747e-09
9.905406491002881e-09
9.905378992997144e-09
9.905363939230851e-09
9.906096638847694e-09
1.005004638010634e-08
3.101320511580961e-08
2.368853444095101e-06
7.769102610860008e-05
0.0004927211094278457
8.159100023921677e-14
1.236334931181802e-11
2.336676114078692e-10
1.706755171567311e-09
7.490610155157396e-09
2.393524577146313e-08
6.136144502459571e-08
1.335338383400377e-07
2.555568346250725e-07
4.397492914430482e-07
6.908547011694564e-07
9.978611300111046e-07
1.326064298411696e-06
1.704050638357981e-06
2.139361208820397e-06
2.635541114317851e-06
3.195201523889867e-06
3.820967879818428e-06
4.515781680682987e-06
5.28212582752641e-06
6.118416119968228e-06
7.008826173361637e-06
7.899999626827335e-06
8.850330119029423e-06
9.879979310817916e-06
1.099863611249729e-05
1.221638285940596e-05
1.354391954660628e-05
1.49920991632355e-05
1.657436679500096e-05
1.830583796346947e-05
2.020336937697539e-05
2.228568213642419e-05
2.457348462114238e-05
2.708958655111499e-05
2.985899220038511e-05
3.290895422182425e-05
3.626896258705976e-05
3.997064145864242e-05
4.40475237951991e-05
4.853466039287191e-05
5.346803120624393e-05
5.888374933949718e-05
6.481704710610345e-05
7.130101466370577e-05
7.836504286389273e-05
8.603290747438499e-05
9.43205685968704e-05
0.0001032334688992764
0.0001127620674317764
0.0001228748571356504
0.0001335070615837072
0.0001415439412706028
0.0001472149875653653
0.0001517364634496485
0.0001551490298273426
0.0001571052813951667
0.0001574277927200589
0.00015579868478493
0.0001516325205640374
0.0001442899464779147
0.0001333764994232211
0.0001191370383231743
0.0001030732483460758
8.763912319661993e-05
7.63248010645638e-05
6.986023474977941e-05
5.185352807447689e-05
3.193299595289769e-05
1.634510592465288e-05
5.729599268885432e-06
9.83982869766362e-07
1.00456045238485e-07
1.6727681348634e-08
1.033274823735926e-08
9.892233958182283e-09
9.864340948793096e-09
9.8626493848215e-09
9.862515321656156e-09
9.862471335292502e-09
9.862431157148561e-09
9.862389175505161e-09
9.862344990614633e-09
9.862298618933564e-09
9.862250131890812e-09
9.862199491576825e-09
9.862147159358438e-09
9.862093277519186e-09
9.862038092280418e-09
9.861981625593206e-09
9.861922545529865e-09
9.861864404751985e-09
9.861807643648318e-09
9.861750816172222e-09
9.861694069754789e-09
9.861637848856443e-09
9.861582599559932e-09
9.86153193921528e-09
9.861487014972372e-09
9.861449337450884e-09
9.861421117112426e-09
9.861406419602877e-09
9.862529532874819e-09
1.00781547240196e-08
4.125211871336322e-08
3.533432196381102e-06
0.0001014275298316218
0.0006204581057352647
8.118022631909119e-14
1.230107492973011e-11
2.32485735271387e-10
1.697967194843819e-09
7.450025085076549e-09
2.379103792482653e-08
6.092601365213554e-08
1.323937918309712e-07
2.53035445287379e-07
4.351792645973647e-07
6.840771621686624e-07
9.903638187980396e-07
1.316933454105889e-06
1.692809952313869e-06
2.125344031497453e-06
2.617786450218011e-06
3.172368566778742e-06
3.791232704703876e-06
4.476800459176965e-06
5.231326345710635e-06
6.054287777500501e-06
6.934678496260871e-06
7.83279109551901e-06
8.771601069209372e-06
9.789057134722006e-06
1.089415526145828e-05
1.209624062284737e-05
1.34048877015845e-05
1.482899264987445e-05
1.637999645317945e-05
1.807111504843503e-05
1.991724170070413e-05
2.193507210114425e-05
2.414325578756482e-05
2.656255863033206e-05
2.921602695843097e-05
3.21291445840321e-05
3.532996856884998e-05
3.884922506906113e-05
4.272032454389566e-05
4.69792513043063e-05
5.166432299641831e-05
5.681582292719741e-05
6.247543076180047e-05
6.868543081555476e-05
7.548769930708467e-05
8.292235845314499e-05
9.102601310905017e-05
9.982954007370391e-05
0.000109355433413817
0.0001196148465552539
0.0001306045331633357
0.0001423036774428943
0.0001546658917809762
0.0001676012645254287
0.0001801177292009812
0.0001872145617844194
0.0001902820658633321
0.0001902799257367355
0.00018786205578842
0.0001829189913154961
0.000174812633982214
0.000162823146171874
0.0001467165862296998
0.0001273811366020853
0.0001077461857539336
9.197174582473744e-05
8.164331627284943e-05
6.730676180017932e-05
4.197299647806719e-05
2.176008207351728e-05
7.839207411125524e-06
1.357483037564411e-06
1.266157855844957e-07
1.784561645460342e-08
1.031797406764996e-08
9.850968939782868e-09
9.82462588835026e-09
9.823234814628276e-09
9.823130966884833e-09
9.823086597853173e-09
9.823042799156114e-09
9.82299682712611e-09
9.822948593631392e-09
9.822898189137972e-09
9.822845572140263e-09
9.822791187712827e-09
9.822735208059014e-09
9.822677878032437e-09
9.822619260108943e-09
9.822558019632397e-09
9.82249766510934e-09
9.822438700467492e-09
9.822379686112786e-09
9.822320826738721e-09
9.8222625597531e-09
9.822205305469342e-09
9.822152655590631e-09
9.822106040272452e-09
9.822066985306888e-09
9.822038277641223e-09
9.822023980012894e-09
9.823657780908404e-09
1.013564496640196e-08
5.574037972570538e-08
5.235247647556047e-06
0.0001305142173249358
0.0007631027671429307
7.974678025908763e-14
1.208388735711726e-11
2.283833782814223e-10
1.668049316851597e-09
7.318887639611404e-09
2.337046859379273e-08
5.983152898143145e-08
1.299466429105016e-07
2.482253045505586e-07
4.268581755873811e-07
6.713929504486185e-07
9.760067385187106e-07
1.299304421316619e-06
1.671569049141727e-06
2.100489645039856e-06
2.589551520215802e-06
3.141200370331892e-06
3.757755659327396e-06
4.441789943183798e-06
5.195858752757657e-06
6.020524966144858e-06
6.908308358779512e-06
7.829118580488725e-06
8.765056684384069e-06
9.775314522409472e-06
1.08698204906641e-05
1.20584564043706e-05
1.335104829957525e-05
1.47565700373081e-05
1.628605284839836e-05
1.795217473871006e-05
1.976911072474618e-05
2.175266313477766e-05
2.392042048359073e-05
2.629192867752689e-05
2.888887099605038e-05
3.173525079205453e-05
3.485755091913365e-05
3.82848390840602e-05
4.204881342004481e-05
4.618376487036124e-05
5.072643553281298e-05
5.571577734859657e-05
6.119258737368923e-05
6.719902375846096e-05
7.377796979537048e-05
8.097215428941525e-05
8.882294679938711e-05
9.736875614221226e-05
0.0001066430719363995
0.0001166722561590006
0.0001274732481938171
0.000139051384890342
0.0001513982537289507
0.0001644886778595761
0.0001782740382626902
0.00019270984756933
0.0002073671026469219
0.0002151916770080218
0.0002178063734943538
0.0002163167955667664
0.0002110810175872284
0.0002018637766235508
0.0001882010882557424
0.0001699785354413112
0.0001480599684807095
0.0001248122582877537
0.0001043622207822564
9.016081142913783e-05
7.643655106840166e-05
4.711097020697962e-05
2.371441744768923e-05
7.981671917850373e-06
1.207743239568843e-06
1.00917234174256e-07
1.540580920968169e-08
1.009932308878329e-08
9.803306947207894e-09
9.788306086582458e-09
9.787578949701975e-09
9.78750744603971e-09
9.787461016298527e-09
9.787413278740924e-09
9.787363265179356e-09
9.787311002860503e-09
9.787256466902814e-09
9.78720010740313e-09
9.787142124478535e-09
9.787082751447148e-09
9.787022086750417e-09
9.786958795318183e-09
9.786896348120903e-09
9.786835307002267e-09
9.78677423613641e-09
9.786713383330259e-09
9.786653204548275e-09
9.78659409492641e-09
9.786539593790637e-09
9.786491424983579e-09
9.786451022183052e-09
9.78642209800937e-09
9.786408118773901e-09
9.788695979941133e-09
1.022925227736252e-08
7.625521472895174e-08
7.666736666849209e-06
0.0001643818053677596
0.0009130050577642047
7.879058729899631e-14
1.193897280121415e-11
2.256404652151481e-10
1.647880453202008e-09
7.228535982561588e-09
2.306786830216448e-08
5.898977082363818e-08
1.279099571779817e-07
2.439250396836813e-07
4.190501356791132e-07
6.592283937011013e-07
9.61870884027329e-07
1.281591713995254e-06
1.649620315747649e-06
2.073779856094233e-06
2.557759593631601e-06
3.104349885006945e-06
3.71623850978092e-06
4.396357064555915e-06
5.147495980250023e-06
5.969976484874479e-06
6.85473086052995e-06
7.76678603946335e-06
8.723464706639559e-06
9.763330888959295e-06
1.089552910676183e-05
1.212951017984477e-05
1.347458524072045e-05
1.493894227281092e-05
1.653230835897087e-05
1.826670827579869e-05
2.015578987647981e-05
2.221489817135273e-05
2.446120375231936e-05
2.691385211605455e-05
2.959412183566841e-05
3.252557183421926e-05
3.573418903760507e-05
3.92485313754491e-05
4.30998143571797e-05
4.732192032904371e-05
5.195135590372209e-05
5.702720150010709e-05
6.259108280257367e-05
6.868702776167539e-05
7.536113200398391e-05
8.266102254227691e-05
9.063502455702219e-05
9.933100774444506e-05
0.0001087948787110218
0.0001190687720761789
0.0001301890518641432
0.0001421843687757213
0.0001550739794745002
0.0001688627529999014
0.0001835364833979708
0.0001990647267384587
0.0002154101319391431
0.0002275778467394671
0.0002353867354609963
0.0002390031382528115
0.0002385037000408299
0.0002336321932745851
0.0002238856499148824
0.0002087936577163369
0.0001883594046657442
0.0001635825334010553
0.0001369523062061469
0.0001129314926633575
9.569774029862086e-05
7.883727358873624e-05
4.686243997961723e-05
2.19655506444582e-05
6.27012493938595e-06
7.363503441341011e-07
5.704251311925728e-08
1.236861042949448e-08
9.885583123544678e-09
9.761035743501088e-09
9.755342068511473e-09
9.755065424706521e-09
9.755009929714303e-09
9.754960338511815e-09
9.754908628272687e-09
9.754854636783581e-09
9.754798319660262e-09
9.754740111788207e-09
9.754680241472865e-09
9.75461894398759e-09
9.754556349532888e-09
9.754491124227581e-09
9.754426707027757e-09
9.75436371311292e-09
9.754300708844166e-09
9.754237987182319e-09
9.754175996821382e-09
9.754115110165765e-09
9.754058839208149e-09
9.754009239982975e-09
9.753967448681796e-09
9.753938611202143e-09
9.753924778776379e-09
9.757033267784539e-09
1.036708055811732e-08
1.049909560151652e-07
1.099249109081539e-05
0.000201426677512253
0.001060214867703801
7.537676562218983e-14
1.142176064201397e-11
2.15876067448514e-10
1.576827270997513e-09
6.919108275777192e-09
2.208984310282197e-08
5.650838440852914e-08
1.225453588519794e-07
2.337086272639745e-07
4.016742681934265e-07
6.326401834977794e-07
9.253696095361596e-07
1.239205181912292e-06
1.597351352052404e-06
2.00965764794138e-06
2.480270579610559e-06
3.012183588844917e-06
3.60827839432071e-06
4.271656529680507e-06
5.005165727762909e-06
5.808854451192772e-06
6.672441444148283e-06
7.557389000883254e-06
8.492911262745668e-06
9.511881382490767e-06
1.062427075168604e-05
1.184009612930501e-05
1.316889967180035e-05
1.461876512119709e-05
1.619873696846555e-05
1.792056714088804e-05
1.979766494088767e-05
2.184515382809031e-05
2.40800037000963e-05
2.652119636153363e-05