/*--------------------------------*- C++ -*----------------------------------*\
| =========                 |                                                 |
| \\      /  F ield         | OpenFOAM: The Open Source CFD Toolbox           |
|  \\    /   O peration     | Version:  v1812                                 |
|   \\  /    A nd           | Web:      www.OpenFOAM.com                      |
|    \\/     M anipulation  |                                                 |
\*---------------------------------------------------------------------------*/
FoamFile
{
    version     2.0;
    format      ascii;
    class       volScalarField;
    location    "0.00000067";
    object      nut;
}
// * * * * * * * * * * * * * * * * * * * * * * * * * * * * * * * * * * * * * //

dimensions      [0 2 -1 0 0 0 0];


internalField   nonuniform List<scalar> 
44064
(
7.804787601317936e-13
1.18140453187598e-10
2.221404568808527e-09
1.601408780592703e-08
6.830916971514684e-08
2.03907105677731e-07
4.610682844584971e-07
8.37834653326591e-07
1.241519587153145e-06
1.718678746784715e-06
2.277867273418789e-06
2.920971854225072e-06
3.648049220517394e-06
4.458462248887963e-06
5.351327474304396e-06
6.325780431908241e-06
7.381163253070974e-06
8.517160921001566e-06
9.733895009401517e-06
1.103197935565989e-05
1.241254109298468e-05
1.38772103695307e-05
1.5428082256952e-05
1.706765445374246e-05
1.879874434796001e-05
2.062438887459018e-05
2.254773020083367e-05
2.457188996960193e-05
2.669983475304301e-05
2.893423574576987e-05
3.127732706818948e-05
3.373076946177635e-05
3.629552940033582e-05
3.897178597288787e-05
4.17588748647666e-05
4.465526153456431e-05
4.765849016869118e-05
5.076496486864672e-05
5.396927874970699e-05
5.7262651308232e-05
6.063000487737438e-05
6.404564470841827e-05
6.74690181512789e-05
7.084540200216068e-05
7.412187741858637e-05
7.729457511890603e-05
8.050186789526348e-05
8.415639643188821e-05
8.904716823979963e-05
9.620220139338207e-05
0.0001059677186547167
0.000115219247220026
0.0001154353266354265
0.0001146073707556228
0.0001125124695963751
0.00010893956176393
0.0001037601247384153
9.696000479436306e-05
8.864104325114027e-05
7.901841400018999e-05
6.841231008469185e-05
5.722770806348589e-05
4.59212625825193e-05
3.496962312759613e-05
2.486389376123121e-05
1.612012527406731e-05
9.237181683564804e-06
4.543403216476555e-06
1.908866911108455e-06
7.057746352622049e-07
2.405919202345763e-07
8.063862490031849e-08
3.033338565034082e-08
1.570758692473424e-08
1.176756155239472e-08
1.078536100146369e-08
1.055952837835229e-08
1.051175612327868e-08
1.05024685472445e-08
1.050081429329974e-08
1.050054195926815e-08
1.050049544523406e-08
1.050048267471936e-08
1.050047430304543e-08
1.05004662823669e-08
1.050045817583236e-08
1.050045009703807e-08
1.050044171817468e-08
1.05004332606207e-08
1.050042602506852e-08
1.050041869050231e-08
1.050041101672611e-08
1.050040415153627e-08
1.050039755999675e-08
1.050039127646547e-08
1.050038548194436e-08
1.050038108520238e-08
1.0500375441646e-08
1.050037167601815e-08
1.050036969242918e-08
1.05003673748895e-08
1.050036573669544e-08
1.050036490708154e-08
1.050040673926153e-08
1.052720074741817e-08
1.95113875861834e-08
1.976080239245516e-06
5.635812430193705e-05
4.492282800237483e-13
6.804475349806497e-11
1.282455707709216e-09
9.286651395288032e-09
4.006875629971241e-08
1.238438805794097e-07
2.969452207368366e-07
5.803880167791858e-07
9.691991024843501e-07
1.383385523921815e-06
1.868936086224288e-06
2.43705709041662e-06
3.092433711341924e-06
3.837986852808e-06
4.675981386038381e-06
5.608430956339891e-06
6.637335430491057e-06
7.764864936487481e-06
8.993515968654324e-06
1.032624366275117e-05
1.176656874248459e-05
1.331865603480905e-05
1.498736052587844e-05
1.677823555086012e-05
1.86974962377642e-05
2.075193293254184e-05
2.294878297907343e-05
2.529558096536754e-05
2.779999131376931e-05
3.046961309618224e-05
3.331175529225717e-05
3.633318465543452e-05
3.953984775011204e-05
4.29365697497497e-05
4.652673430795875e-05
5.031195099393951e-05
5.42917185416896e-05
5.84630913025496e-05
6.282034826770366e-05
6.735464021131582e-05
7.205353486983706e-05
7.690049105916325e-05
8.187460249723176e-05
8.69509418792998e-05
9.210145395596736e-05
9.729572348834161e-05
0.0001024998431043482
0.0001076702835735192
0.0001127395203621737
0.000117594585832292
0.0001220636732888873
0.0001259504038977246
0.0001291730442910675
0.0001318505431795645
0.0001341518768657814
0.0001361582726804159
0.0001378098505826277
0.000139090980068214
0.0001406234890297096
0.0001439283656111269
0.0001502936139689835
0.0001562666951000169
0.0001441236499683887
0.0001265686985860953
0.0001071075646961593
8.673396085498017e-05
6.637760959399771e-05
4.693759874958537e-05
2.951732337752197e-05
1.551233458501094e-05
6.257267673209019e-06
1.864709156767112e-06
4.505315339159698e-07
1.029096259586247e-07
2.837720475380166e-08
1.364845795891305e-08
1.092385819636663e-08
1.045054832056034e-08
1.037328964507585e-08
1.036142812928811e-08
1.03597010557369e-08
1.035944486720601e-08
1.035938729618516e-08
1.035935358568737e-08
1.035932161916636e-08
1.035928891514742e-08
1.035925553950802e-08
1.035922139989016e-08
1.035918442652924e-08
1.035914592515269e-08
1.035911101963104e-08
1.035907921522672e-08
1.035904807496713e-08
1.03590169866178e-08
1.035898623350101e-08
1.035895573503295e-08
1.035892711028833e-08
1.035889764527412e-08
1.035887434522667e-08
1.035885497222033e-08
1.035883817862042e-08
1.035882620243362e-08
1.035881961429647e-08
1.0359056681734e-08
1.052694044061782e-08
6.117785420945067e-08
8.647850769102076e-06
0.0001327413267090392
3.684755826908583e-13
5.581971224127798e-11
1.052955409442577e-09
7.646394737006917e-09
3.319964723735186e-08
1.038921205211107e-07
2.540956561225494e-07
5.082734624591123e-07
8.687399500400684e-07
1.271635348892878e-06
1.732824938725911e-06
2.272702885438447e-06
2.898487277677875e-06
3.614328472397667e-06
4.423408752621672e-06
5.328592534842394e-06
6.332777272097819e-06
7.439180582406986e-06
8.651596197582076e-06
9.974563390160761e-06
1.1413296329647e-05
1.297306742704974e-05
1.465750982718542e-05
1.64650056560843e-05
1.838204084651664e-05
2.037238967087371e-05
2.249577156526247e-05
2.479225364464385e-05
2.727483093335224e-05
2.995727740302482e-05
3.285414029377745e-05
3.598072246017419e-05
3.93530479744792e-05
4.298780520480314e-05
4.690225875101069e-05
5.111411917863145e-05
5.56413557701363e-05
6.050193088283208e-05
6.571342689360282e-05
7.129253347485974e-05
7.70126547158167e-05
8.28787960007255e-05
8.892300160944908e-05
9.516647962009764e-05
0.0001016178442996411
0.0001082727207988522
0.0001151138053476192
0.0001221099290993933
0.0001292121827336351
0.0001363461701199614
0.0001434013053728965
0.0001502183408642695
0.00015657737159752
0.0001621938826916842
0.0001667433803805075
0.0001699570795072609
0.0001718485850143255
0.0001727583323591176
0.0001730737781959387
0.0001730663079999837
0.0001728393449561762
0.0001722405672462917
0.0001709090370801404
0.0001691592983659824
0.0001682570077737023
0.0001664218298574301
0.0001483897988336834
0.0001216068457363634
9.409038412885839e-05
6.703585486320118e-05
4.204816858984982e-05
2.144925153512102e-05
7.857505338395555e-06
1.915008021015428e-06
3.567629554913279e-07
6.522125114703469e-08
1.825781959551194e-08
1.133066597383821e-08
1.038364531352063e-08
1.02631816444472e-08
1.024885649591602e-08
1.024723305466648e-08
1.024702992327989e-08
1.024697421709063e-08
1.024693156168954e-08
1.024688871544836e-08
1.024684474785958e-08
1.024679967130097e-08
1.024675123809604e-08
1.024670061319479e-08
1.024665346283023e-08
1.024660899624193e-08
1.02465644888067e-08
1.024651944662627e-08
1.024647442143343e-08
1.024642911142339e-08
1.024638558374346e-08
1.024634186578931e-08
1.024630378215905e-08
1.024626993537437e-08
1.024624078525026e-08
1.02462189471929e-08
1.02462054244906e-08
1.024742295921929e-08
1.105174899529113e-08
2.581101665819209e-07
3.373841739340366e-05
0.0003462995342301128
2.931429676138459e-13
4.441133192224268e-11
8.381785323444753e-10
6.093724385786029e-09
2.649783561857058e-08
8.328980874417036e-08
2.063634462859658e-07
4.212388951418106e-07
7.355024423445086e-07
1.116592546525085e-06
1.536384716482712e-06
2.026683697571112e-06
2.596984533186371e-06
3.252240093258816e-06
3.996212280737247e-06
4.832401933538646e-06
5.764514800035644e-06
6.796823191918124e-06
7.934418972528829e-06
9.183144224493662e-06
1.05487011146988e-05
1.203399294969094e-05
1.36331077689893e-05
1.53196498177423e-05
1.703745730296112e-05
1.889967666640997e-05
2.091786066928336e-05
2.31044062386081e-05
2.547257842566152e-05
2.803653355916975e-05
3.081134009956928e-05
3.381299245139428e-05
3.705841947502514e-05
4.056548082829795e-05
4.435295203413414e-05
4.844049449151551e-05
5.284860451541755e-05
5.759854192042699e-05
6.271222725330719e-05
6.821210941276046e-05
7.412098736743423e-05
8.046172773932254e-05
8.725680506769867e-05
9.452764633528794e-05
0.0001022937315503276
0.0001105713622034762
0.0001193719634552493
0.0001285032631489449
0.0001373832714863653
0.0001461149357776616
0.0001547688924898042
0.0001633681494629199
0.0001718766421332017
0.0001801927961059159
0.0001881511432185685
0.0001955318843271346
0.0002020737869436011
0.0002074810103588549
0.0002114177570740386
0.0002135045635545018
0.0002133650210442221
0.0002108192516298975
0.0002063456661701485
0.0002008207919720396
0.0001947507327516702
0.0001880964242217088
0.000180909732732252
0.0001738557436911065
0.0001632777101184132
0.0001313686762696776
9.853669635412652e-05
6.638115119803379e-05
3.74761658093896e-05
1.559239957146746e-05
4.047481148267055e-06
6.844366047809423e-07
1.01561678414817e-07
2.136628432973022e-08
1.142470613931666e-08
1.02884521647514e-08
1.016824376425336e-08
1.015641715834944e-08
1.015529735918001e-08
1.015515774734227e-08
1.015510011371714e-08
1.015504728221947e-08
1.015499330725375e-08
1.015493802378498e-08
1.015487922329007e-08
1.015481771828374e-08
1.015475925696089e-08
1.015470338348906e-08
1.015464730140124e-08
1.015459059719373e-08
1.015453402366306e-08
1.0154477167046e-08
1.015442201490668e-08
1.01543670686255e-08
1.01543178724387e-08
1.015427399667931e-08
1.015423655768091e-08
1.015420823279717e-08
1.015419162917635e-08
1.016131793145638e-08
1.406343887596877e-08
1.14588416877177e-06
9.413185015651176e-05
0.0006687189674259232
2.617502134415433e-13
3.965709907286515e-11
7.486967814207747e-10
5.448871189359086e-09
2.374444877498495e-08
7.49311600470687e-08
1.870226759492368e-07
3.858010447880081e-07
6.81232917432129e-07
1.053338892438318e-06
1.456166968993153e-06
1.926527088747229e-06
2.474789697256805e-06
3.106164307350426e-06
3.824532019538346e-06
4.6334455715634e-06
5.536604887495619e-06
6.538227576921809e-06
7.643329596381696e-06
8.857719821749885e-06
1.018723065542497e-05
1.163525460639615e-05
1.319699324718277e-05
1.484805015586395e-05
1.652462184299646e-05
1.83366059673102e-05
2.030019025451542e-05
2.242743266114292e-05
2.473126622978083e-05
2.722552816523862e-05
2.99249874019625e-05
3.28453703542971e-05
3.600338066622075e-05
3.9416713524309e-05
4.310406131176335e-05
4.708510684584394e-05
5.138050229902417e-05
5.601182990184004e-05
6.100154144460806e-05
6.637286670187598e-05
7.214968830546878e-05
7.835635467567901e-05
8.501741922581462e-05
9.215729347663616e-05
9.979979270579445e-05
0.0001079675504279428
0.0001166812620943368
0.0001259587210711334
0.0001358135003947042
0.0001462528579629969
0.0001572740275186812
0.000168135730196088
0.0001785387847642588
0.0001885957853746428
0.0001983673762426053
0.0002078369210272222
0.0002168905739751904
0.0002253080384401045
0.0002327652736426
0.0002388485730448954
0.0002430808565833946
0.0002449604431259824
0.0002440092689916682
0.0002398357225013937
0.0002322888866329163
0.0002218784060059454
0.0002098610097374269
0.0001975235541906668
0.0001855728441248131
0.0001736090595222247
0.0001549901820734326
0.0001185436850375795
8.172364823534072e-05
4.738126180656319e-05
2.015709969346918e-05
5.095013685085519e-06
7.654892555808653e-07
9.777682048962337e-08
1.92496790970003e-08
1.096329007924239e-08
1.015756497015039e-08
1.008509883524523e-08
1.007902221972676e-08
1.007850231658035e-08
1.00784111771982e-08
1.007834883550042e-08
1.007828655289782e-08
1.007822279093071e-08
1.007815535200025e-08
1.007808478257871e-08
1.00780168245588e-08
1.007795128702026e-08
1.007788539772212e-08
1.007781877156316e-08
1.007775231463416e-08
1.007768563854233e-08
1.007762068744957e-08
1.00775563269481e-08
1.00774977455676e-08
1.007744531270741e-08
1.007740080904716e-08
1.007736719385997e-08
1.007735985394064e-08
1.010776517980806e-08
2.478935661304784e-08
3.896987936235242e-06
0.0001803873062421628
0.001010478423479392
2.293505227347532e-13
3.474971249703543e-11
6.562320820365609e-10
4.779727638491247e-09
2.085610942087753e-08
6.596489772190824e-08
1.655334229773142e-07
3.447792857508276e-07
6.158995956186871e-07
9.741530176639504e-07
1.353490601128903e-06
1.796084010753668e-06
2.313023638942635e-06
2.90971034638452e-06
3.590179635915e-06
4.358165820471127e-06
5.217587394950374e-06
6.172916152677396e-06
7.229430263726745e-06
8.393099371888501e-06
9.669499777011161e-06
1.106059084945632e-05
1.255736075952538e-05
1.412544458536949e-05
1.57364214323408e-05
1.748391060469774e-05
1.937895191561638e-05
2.143344352151702e-05
2.36601752229206e-05
2.60728624405672e-05
2.868618055741147e-05
3.151579698786871e-05
3.457840097522255e-05
3.789172868988648e-05
4.147458039969597e-05
4.534682930673186e-05
4.952941756448248e-05
5.404433845384711e-05
5.891460093587211e-05
6.41641732392491e-05
6.981789570843634e-05
7.590134544296124e-05
8.244064152613326e-05
8.94621810420111e-05
9.699228677680652e-05
0.0001050567545782485
0.0001136802658021223
0.0001228856299458225
0.0001326928008219875
0.000143117615397975
0.0001541701680871843
0.0001658527555425981
0.0001781562704315198
0.0001910554666538817
0.0002036451887495501
0.0002153638028537431
0.000226378458003985
0.000236761432600431
0.0002464451522432532
0.0002552017994713016
0.0002626459342469495
0.0002682572354369268
0.0002714224965453503
0.0002714977192438361
0.0002678915667544548
0.0002601727372926022
0.0002482109882946291
0.0002324380930596388
0.0002144748089401059
0.0001967607441121204
0.000180882974633719
0.0001637933225993883
0.0001277309855824602
8.73933173232577e-05
4.947930146963768e-05
1.97429466563406e-05
4.333678700854101e-06
5.484113769792342e-07
6.33666318090894e-08
1.481187844013938e-08
1.041195675491965e-08
1.004397577241316e-08
1.001547151348306e-08
1.001337492223889e-08
1.001317590418473e-08
1.00131009436344e-08
1.001303148887659e-08
1.001296066571317e-08
1.001288607320668e-08
1.001280803725388e-08
1.001273227568594e-08
1.001265881299822e-08
1.001258492606791e-08
1.001251021760738e-08
1.001243566575389e-08
1.001236099071842e-08
1.001228805062159e-08
1.00122159793806e-08
1.001214963088258e-08
1.001209012287064e-08
1.001203968757249e-08
1.001200195200773e-08
1.0012049399437e-08
1.0111555832457e-08
5.336598671761104e-08
9.861867067222775e-06
0.0002703761363330774
0.001303427456701521
2.095575138831012e-13
3.17516946819309e-11
5.997380770517752e-10
4.371057379897538e-09
1.909668302224085e-08
6.052586957833326e-08
1.524834505384599e-07
3.196886848949692e-07
5.75641750080566e-07
9.188666850899193e-07
1.289656516675634e-06
1.717062732263463e-06
2.215872149413025e-06
2.792302616170491e-06
3.450628097038616e-06
4.194661756731994e-06
5.028328225109885e-06
5.956055857694194e-06
6.983052916521725e-06
8.115246939700343e-06
9.35831703242788e-06
1.071468533025471e-05
1.217649898923633e-05
1.371167269979351e-05
1.528405574718045e-05
1.69899651302436e-05
1.88402279431912e-05
2.084653361492479e-05
2.302146802818861e-05
2.537855127268175e-05
2.793227515781454e-05
3.069814123704652e-05
3.369269529072443e-05
3.693355924993094e-05
4.043945799293242e-05
4.423023948405096e-05
4.832688548692013e-05
5.275151094185642e-05
5.752734721972408e-05
6.267870841454172e-05
6.82309308016866e-05
7.421027330876311e-05
8.064376375680832e-05
8.755898376102217e-05
9.498378012659392e-05
0.0001029458867728203
0.0001114724294576003
0.0001205892837911884
0.0001303202403114955
0.0001406859271528717
0.0001517024112234032
0.0001633793910612525
0.0001757178434564491
0.000188706974027299
0.0002023194060868879
0.0002165049745365429
0.0002298936419158732
0.0002422493833809375
0.0002537221597151451
0.0002643426097371012
0.0002739668094740856
0.0002822540255587348
0.0002886732543548181
0.0002925348864999777
0.0002930466890118926
0.0002893984856581417
0.0002808923693945746
0.0002671557761998635
0.0002484900111119138
0.0002264126405301447
0.0002040417658123681
0.000184194473039617
0.0001641946002082822
0.0001275002486399737
8.432329456264919e-05
4.446713959951314e-05
1.520319944519468e-05
2.599717959166245e-06
2.728099726425354e-07
3.238643112087248e-08
1.17099756384766e-08
1.008355605702568e-08
9.965371059749634e-09
9.957375838048871e-09
9.956814078253885e-09
9.956713416137883e-09
9.956636996575521e-09
9.956560027240401e-09
9.956479265031506e-09
9.956394842607005e-09
9.956312432844441e-09
9.956232231813058e-09
9.956151595226063e-09
9.956070109826721e-09
9.95598880679039e-09
9.955907480158182e-09
9.95582800480354e-09
9.955749622797213e-09
9.955676822687271e-09
9.955611511818447e-09
9.955556083719161e-09
9.955514720149163e-09
9.955736387959612e-09
1.022342290633697e-08
1.174674904383876e-07
2.028193420473931e-05
0.0003656896351499056
0.001587231300368336
1.890110073239309e-13
2.863929816476371e-11
5.410527026255786e-10
3.94560049847385e-09
1.725521331773945e-08
5.476953535469744e-08
1.383812379924719e-07
2.917676346327355e-07
5.294257797438792e-07
8.517788558514158e-07
1.213067083877269e-06
1.621729447043619e-06
2.097872886640291e-06
2.648839948169473e-06
3.279259996355399e-06
3.993134018747852e-06
4.794531444050626e-06
5.688010689664284e-06
6.678893931417392e-06
7.773168853094392e-06
8.976393231690672e-06
1.029034574068631e-05
1.170522883879987e-05
1.31841669412936e-05
1.471229659152614e-05
1.637100365437341e-05
1.817096002840729e-05
2.01237042668815e-05
2.224167780328194e-05
2.453826613430974e-05
2.702784078897019e-05
2.972580263463265e-05
3.264862358759041e-05
3.581388692270907e-05
3.924032160779195e-05
4.294783221060728e-05
4.695752147870898e-05
5.129170190959804e-05
5.597389510756514e-05
6.102881610461944e-05
6.648233475337761e-05
7.236139992921867e-05
7.869391690987061e-05
8.55085680453457e-05
9.283456635666229e-05
0.0001007013268146949
0.000109138028180234
0.0001181730464533037
0.0001278332303621189
0.0001381429610058306
0.0001491229437860942
0.0001607886480111693
0.0001731483041059722
0.0001862003193543831
0.0001999299557037091
0.0002143042063191285
0.0002292669209337572
0.0002447277977469459
0.0002586858543201906
0.000271306599722227
0.0002827349150953282
0.0002929243794490503
0.0003015894119256015
0.000308196979819745
0.0003119931821222783
0.0003120656406004656
0.0003074505674661813
0.0002973039101864979
0.0002811657009051032
0.0002593416012727219
0.0002334144100624094
0.0002070013269217023
0.0001837953386582396
0.0001607539432591219
0.0001194017600132108
7.395310764827949e-05
3.416733987584356e-05
8.90589353802331e-06
1.09968052890284e-06
1.011552771814978e-07
1.668667620176161e-08
1.037165636004713e-08
9.936892477167066e-09
9.909182782743376e-09
9.907484671509583e-09
9.907318964315799e-09
9.907234260483312e-09
9.907151660255e-09
9.907065339363864e-09
9.906975184682077e-09
9.906886839487019e-09
9.906800651223044e-09
9.906714044196123e-09
9.906626592067153e-09
9.906539339516158e-09
9.906452225198654e-09
9.906367078833729e-09
9.906283197103575e-09
9.906204835571122e-09
9.906134670847374e-09
9.906075086641598e-09
9.906029239108102e-09
9.906622364819606e-09
1.050273532751182e-08
2.368625178378846e-07
3.433564267261206e-05
0.0004398494138458093
0.001750622714813083
1.755825548165228e-13
2.660511359847863e-11
5.026952158829091e-10
3.667583225014955e-09
1.605402558093284e-08
5.102998231383641e-08
1.292484440227862e-07
2.736666331402628e-07
4.993898954877942e-07
8.081385827946901e-07
1.162905774447409e-06
1.55910610382458e-06
2.020298303140415e-06
2.554473411311456e-06
3.166420555872645e-06
3.860184455010428e-06
4.639827830721179e-06
5.509864794657102e-06
6.475550688553576e-06
7.542830178731678e-06
8.717354117619622e-06
1.000135369308314e-05
1.138622178026758e-05
1.283754544409406e-05
1.433416955595402e-05
1.595911899981364e-05
1.772291469107387e-05
1.963694879849953e-05
2.171352103493808e-05
2.396588241494943e-05
2.640827877853739e-05
2.905599731856545e-05
3.192541126438881e-05
3.503402445514616e-05
3.840051348740825e-05
4.204476381750055e-05
4.598790145580972e-05
5.025231476035845e-05
5.486166600270657e-05
5.984089012514965e-05
6.52161732071755e-05
7.101489622498936e-05
7.726553496027202e-05
8.399750777285221e-05
9.12409622834873e-05
9.902648773112725e-05
0.0001073847359774559
0.0001163459187019072
0.0001259391507298266
0.0001361916033515457
0.0001471274055021011
0.0001587662313717181
0.0001711214786476826
0.0001841979237293516
0.0001979886884255899
0.0002124713372551974
0.0002276019473015747
0.0002433085303447551
0.0002594806824320214
0.000274306339550135
0.0002875918736308622
0.000299476628115852
0.0003099123563475243
0.0003185961421788327
0.0003249486920033344
0.0003281343977007618
0.0003271259199416648
0.0003208258375967484
0.0003082713924096986
0.0002889634422843278
0.0002633609475151444
0.00023356038205988
0.0002042121949707546
0.0001789459397166691
0.000152392530746343
0.0001045225625516047
5.799503587412816e-05
2.135188329703985e-05
3.718985481918603e-06
3.406037009997825e-07
3.355711846565088e-08
1.141253873991039e-08
9.95719644452224e-09
9.868891169211925e-09
9.86387368693999e-09
9.863536251073638e-09
9.863438969890986e-09
9.863351097400002e-09
9.863259779412066e-09
9.863164497103258e-09
9.863070848392322e-09
9.862979303975813e-09
9.862887360420621e-09
9.862794584911514e-09
9.862702038891327e-09
9.862609735713895e-09
9.86251954429702e-09
9.862430789829886e-09
9.862347400088825e-09
9.862272893170574e-09
9.862210087306298e-09
9.86215748508577e-09
9.86335939712556e-09
1.099761921965114e-08
4.296293555350919e-07
5.050477797044659e-05
0.000499669825738943
0.001861907193275246
1.619582582787046e-13
2.454115473911015e-11
4.63760819053695e-10
3.384992323259331e-09
1.482914271154084e-08
4.719197220663544e-08
1.19756873129126e-07
2.544768744791577e-07
4.668113537354697e-07
7.598005849801628e-07
1.106702602954946e-06
1.488405732445286e-06
1.932300258231933e-06
2.447065818358066e-06
3.037687195175612e-06
3.708312951886361e-06
4.463086817368769e-06
5.306592125721207e-06
6.244140634374426e-06
7.281709016928563e-06
8.42490999001481e-06
9.675722987259421e-06
1.102470322551884e-05
1.243520038509532e-05
1.389798451302065e-05
1.548690292840643e-05
1.721235534394676e-05
1.908561560610134e-05
2.11188694178413e-05
2.332525919655279e-05
2.571893197830191e-05
2.831508868062099e-05
3.113003351518865e-05
3.418122359361828e-05
3.748731692204492e-05
4.10682155204341e-05
4.494510491217579e-05
4.914048660884371e-05
5.36781997324874e-05
5.858343192604499e-05
6.388271093823157e-05
6.960386660842725e-05
7.577594942089262e-05
8.242909938812254e-05
8.959436102840237e-05
9.730342510528577e-05
0.0001055882809363553
0.0001144807623534105
0.0001240119435975884
0.0001342113651892192
0.0001451060261982753
0.0001567190896601523
0.0001690682118463834
0.0001821633979017692
0.0001960042536847567
0.0002105764687476568
0.0002258473059614133
0.0002417588835673106
0.0002582205884609517
0.000275096322481289
0.0002908608240934091
0.0003047527015371176
0.0003169393263894896
0.0003273675846760691
0.0003356927002293086
0.0003412570090740154
0.0003431150116812915
0.0003401118525851352
0.000331038673896696
0.0003149084019913354
0.0002914057959022323
0.0002615280881105307
0.0002283313197008813
0.0001976535656099156
0.0001705670430131567
0.0001335347366533174
8.357408695101439e-05
3.874588970690934e-05
9.803554328741208e-06
1.07012278124318e-06
8.505952666777985e-08
1.455486022423185e-08
1.009839413065921e-08
9.839095432437989e-09
9.825101192203463e-09
9.824325938511586e-09
9.824204929705134e-09
9.824111718940658e-09
9.824015787894151e-09
9.823915795074411e-09
9.823817295757712e-09
9.823720873600499e-09
9.82362407792364e-09
9.823526471357973e-09
9.823429109009695e-09
9.8233321219226e-09
9.823237358468255e-09
9.82314416581755e-09
9.823056168193485e-09
9.822977541393402e-09
9.822912947549425e-09
9.822850566962982e-09
9.824988451583105e-09
1.17983450763465e-08
7.314431324560645e-07
6.967233486097928e-05
0.0005842098085980994
0.002105903432663271
1.525806162548635e-13
2.312050949995863e-11
4.369606033911118e-10
3.190491117990095e-09
1.398693602558643e-08
4.456049512392615e-08
1.132716531883403e-07
2.413824869235823e-07
4.445749337111652e-07
7.268135122982456e-07
1.068097610892042e-06
1.439713031341193e-06
1.871643589005172e-06
2.372986346201057e-06
2.948816267348783e-06
3.60330357773146e-06
4.340580956009068e-06
5.165190928782535e-06
6.082383265149539e-06
7.098090110621542e-06
8.218000843004115e-06
9.444512989709298e-06
1.076933852805776e-05
1.215832815037316e-05
1.359614460109736e-05
1.515834923597707e-05
1.685522756999239e-05
1.869794245950484e-05
2.069857265386968e-05
2.287015901676727e-05
2.522675467060532e-05
2.778347682374283e-05
3.055655938470259e-05
3.356340639089801e-05
3.682264441237388e-05
4.035417067170975e-05
4.417919881442986e-05
4.832029713614065e-05
5.280141973765663e-05
5.764792510644398e-05
6.288657956126569e-05
6.854553216241807e-05
7.465424940360028e-05
8.124340609357619e-05
8.834472266754585e-05
9.599073188469827e-05
0.0001042144643903779
0.0001130490282727564
0.0001225270529807539
0.000132679962305156
0.0001435370379135423
0.0001551242129464052
0.0001674625141386153
0.0001805660668905391
0.0001944395351048351
0.0002090748474775998
0.0002244470017145651
0.0002405087161171416
0.0002571826090242312
0.0002743505548356382
0.0002918375501916012
0.0003074475435108189
0.0003211768703628545
0.0003331184728056551
0.0003431095334127933
0.0003506651518308584
0.0003549640301811048
0.0003548887207989819
0.0003491372519854449
0.0003364410390611978
0.0003159396295827464
0.000287750337999981
0.0002536936487214412
0.0002180458975500121
0.0001867587001163121
0.0001576230080249979
0.0001092389651637433
5.895074706010026e-05
2.014819263730966e-05
2.974827570777099e-06
2.302895759186015e-07
2.325232040012448e-08
1.054091979849885e-08
9.82769755094385e-09
9.790743789343952e-09
9.788896656021653e-09
9.788725874338096e-09
9.788626682974243e-09
9.788526474324725e-09
9.788422161933552e-09
9.788319218102334e-09
9.788218321806727e-09
9.788117075649043e-09
9.788015041971688e-09
9.787913279862583e-09
9.7878119744143e-09
9.787713012719438e-09
9.787615780766512e-09
9.7875235311308e-09
9.787440606846637e-09
9.787376247903317e-09
9.787300990720102e-09
9.790936027533914e-09
1.308540783066982e-08
1.209587713660062e-06
9.354559905541351e-05
0.0006995655970873145
0.002443419176180342
1.433869697154888e-13
2.172768996288177e-11
4.106783654194414e-10
2.999575399015739e-09
1.315857030723316e-08
4.196225716760056e-08
1.068208934865775e-07
2.281917890573278e-07
4.218134104399072e-07
6.925186791680937e-07
1.027473995045916e-06
1.388118319883669e-06
1.80708744949797e-06
2.293889933656779e-06
2.853711746913294e-06
3.490788471678849e-06
4.209305698125725e-06
5.013847079946771e-06
5.909689682646009e-06
6.90278034959486e-06
7.998811538807343e-06
9.200151488784846e-06
1.049834905319712e-05
1.185865751221153e-05
1.327098737720545e-05
1.480602152930606e-05
1.647395095931518e-05
1.828584455398011e-05
2.025368827342008e-05
2.23904333621831e-05
2.471004807994853e-05
2.722757224815338e-05
2.995917326690958e-05
3.292220276162635e-05
3.613525262748303e-05
3.961820836248833e-05
4.339230031972107e-05
4.748014877111714e-05
5.190579984009263e-05
5.669475452410073e-05
6.18739794713552e-05
6.747189328874762e-05
7.351831920388478e-05
8.004439216305563e-05
8.708241765489036e-05
9.466566781034811e-05
0.0001028280937664173
0.0001116039433686082
0.000121027249334885
0.0001311311610195261
0.0001419470624219893
0.0001535034344910714
0.0001658243945214848
0.0001789278192558646
0.0001928229465138781
0.0002075073012893312
0.0002229627856990928
0.0002391506919760422
0.0002560056882989904
0.0002734246078719175
0.000291253394743582
0.0003092131651293051
0.0003248390421238725
0.0003383557941970137
0.0003498069941535048
0.0003589363849675877
0.0003651274745575772
0.0003673998651813045
0.0003644725901237961
0.0003549240786671202
0.0003374990133140212
0.0003116252906834996
0.0002781661052943407
0.0002403109045651899
0.0002044068199106771
0.0001730075380732347
0.0001338788363637926
8.04361495503872e-05
3.401661857147068e-05
7.016139915203486e-06
6.056103592538281e-07
4.559440407242602e-08
1.169673568634741e-08
9.853290176159302e-09
9.760990340433602e-09
9.756648909854669e-09
9.756371318850674e-09
9.756264288287251e-09
9.756159990917945e-09
9.756051625402329e-09
9.755944529328528e-09
9.755839470804204e-09
9.755734088550956e-09
9.75562794446745e-09
9.755522086961552e-09
9.755416796164654e-09
9.755313927165107e-09
9.755212914340184e-09
9.755116849570159e-09
9.755029126024481e-09
9.754967546135353e-09
9.754876587649059e-09
9.76111433472501e-09
1.524221635474187e-08
1.995910136559954e-06
0.0001248185599146117
0.000855648930544713
0.002865547403199479
1.374183257847908e-13
2.082345715469011e-11
3.9361712969563e-10
2.875711626196298e-09
1.262230593727881e-08
4.028944723072401e-08
1.027066602602584e-07
2.198753044732951e-07
4.076342996957084e-07
6.713984684181903e-07
1.001998640261544e-06
1.355473189118709e-06
1.76591842103429e-06
2.243021486052271e-06
2.791996105676828e-06
3.417084533367508e-06
4.122465461668975e-06
4.912695664617869e-06
5.793007508089515e-06
6.769317334321637e-06
7.847400838938337e-06
9.030052953912526e-06
1.031004000248118e-05
1.165536961977856e-05
1.304928242048539e-05
1.456464828766751e-05
1.621156026782674e-05
1.800099190816942e-05
1.99448365658085e-05
2.205595625289449e-05
2.434823478785549e-05
2.683663368232583e-05
2.953724977897629e-05
3.246737478957769e-05
3.564555440556378e-05
3.909164661610515e-05