/*--------------------------------*- C++ -*----------------------------------*\
| =========                 |                                                 |
| \\      /  F ield         | OpenFOAM: The Open Source CFD Toolbox           |
|  \\    /   O peration     | Version:  v1812                                 |
|   \\  /    A nd           | Web:      www.OpenFOAM.com                      |
|    \\/     M anipulation  |                                                 |
\*---------------------------------------------------------------------------*/
FoamFile
{
    version     2.0;
    format      ascii;
    class       volScalarField;
    location    "0.00000067";
    object      omega;
}
// * * * * * * * * * * * * * * * * * * * * * * * * * * * * * * * * * * * * * //

dimensions      [0 0 -1 0 0 0 0];


internalField   nonuniform List<scalar> 
44064
(
1142191.394805453
209618.0845439639
73400.51630655708
35397.14343265196
20255.69279772643
12857.76896120805
8795.411929343447
6387.57676474444
4852.131059652597
3809.273675202943
3069.792059388118
2526.807422933271
2116.129204602018
1797.489960930162
1544.724983687531
1340.314721397099
1172.214155436112
1031.943930757454
913.4057116911265
812.1271807716967
724.7692482045345
648.7973978421643
582.2581333572181
523.6241263480309
471.685165082864
425.4701836446495
384.1907163996888
347.1993657674775
313.9589429115268
284.0192822151685
256.9996457327627
232.5752504686932
210.4668598597006
190.4326779329785
172.2619945481821
155.7701564250275
140.7945458104416
127.1913075088338
114.8326021993591
103.6041940470512
93.40322075640179
84.13606512661167
75.71638743721286
68.06367839447216
61.1029924737315
54.76679438904437
48.99997150716634
43.76802613085147
39.06538707984419
34.91380991638245
31.33455343668507
28.28665631973983
25.61093053233261
23.1955084148599
21.03684136890477
19.12948434368231
17.45827124903399
15.99975645505482
14.72747186714884
13.61484201196205
12.63617856488768
11.76702273032731
10.98529264738449
10.27514630778201
9.632778350249684
9.070817073844252
8.614698561360004
8.292060844717499
8.109972001576576
8.031585006523045
8.002443822873103
7.992459027539433
7.989945405422279
7.989049952504417
7.988847390952389
7.988723091061635
7.988712923041161
7.988715391210946
7.988707908487171
7.988703793252862
7.988700761289845
7.988696955166527
7.988693044952507
7.988689036899945
7.988684920807034
7.988680728595839
7.9886765482237
7.988672209995136
7.988667831462253
7.988664090602961
7.988660292907015
7.988656318177846
7.988652765010205
7.988649351791739
7.988646097737767
7.988643096892845
7.988640821023087
7.988637895856404
7.988635946428557
7.988634919796631
7.988633718746473
7.988632870092144
7.988632437523631
7.988632506312445
7.988634887867359
7.989355179413744
8.177119923372926
24.0655989122675
1142187.342372472
209485.0790039376
73226.47768609689
35339.69897537209
20382.8101728965
13041.66836869081
8941.212940543279
6471.933646259862
4902.115771677485
3845.475879727644
3096.194779786912
2545.980206662164
2130.221876922322
1808.27175117711
1553.565100787782
1348.223846669762
1179.909560651004
1039.914856972838
921.969837465615
821.4759734676453
735.0028836599536
659.9510370345521
594.3213797442388
536.5553016158676
485.421687250477
439.9360322961962
399.3017453775324
362.8670505080352
330.0930180270826
300.5301341926663
273.7997964484314
249.5800548963576
227.5950018692854
207.6065027673997
189.4076924900471
172.8178228643542
157.6781496371413
143.8486291481698
131.2052368067599
119.6377753453185
109.0480535018413
99.34835906349822
90.46018947315532
82.31323869394863
74.84463184069855
67.9983655481789
61.72484012700174
55.98029450581685
50.72589184023497
45.92623836631558
41.54747179903259
37.55572739812862
33.91836920352532
30.60893365841753
27.60966085613542
24.90853970933362
22.49580404775396
20.3667056685121
18.51604672951647
16.91629888362477
15.52024106064848
14.3055090630237
13.24387932301791
12.30282419079578
11.45403348479511
10.65303380073888
9.86066628994573
9.067020776589775
8.298039555145397
7.613955480707198
7.10485109176398
6.846311125071609
6.762739002846653
6.741877473222594
6.73792684255777
6.737203613516935
6.736959986639715
6.736824418281024
6.736725478097042
6.736618510090658
6.736501270132864
6.736373973230485
6.736236662775977
6.736089454757122
6.735932735422275
6.735767024022121
6.735593073014034
6.735411548512413
6.735222594716225
6.735030129675218
6.734838423047698
6.73464407673049
6.734446654357581
6.734247038284491
6.734046521860162
6.733846257933607
6.733647455723425
6.73345249934642
6.733303733774465
6.733175318505075
6.733070669713602
6.732995905293682
6.732958105642643
6.732967023796287
6.733046013060062
6.736030963712323
7.296901198694819
25.4723626507735
1142182.780212274
209461.7925523719
73172.02353565588
35262.60328224306
20306.08503051197
12970.68499885848
8866.054201829727
6389.243097295188
4814.840888884283
3760.123916162685
3016.304553857738
2471.969606066956
2062.042624199384
1745.752115767468
1496.47734112298
1296.299877531103
1132.856290599002
997.4290235866312
883.7505876379371
787.2343318175583
704.4675944614434
632.8698568262321
570.4564198153429
515.6703801502848
467.2610274493314
424.1849495609389
385.6316088697599
351.0078368572197
319.8367979772379
291.713160270258
266.290080078085
243.2689509560687
222.3912665974988
203.432111491431
186.1949199603473
170.5072285413858
156.2172124610544
143.190849974537
131.3095924968245
120.4684337439926
110.5591929734677
101.4732767696543
93.12236202417391
85.43412320357521
78.34809304556613
71.81265439647105
65.78286316560254
60.219057418419
55.08590674925313
50.35164258096393
45.98733683601868
41.96622410345088
38.26309651328996
34.85385782801895
31.7154399458726
28.82636572185799
26.16888151129423
23.73242870813838
21.51433518204043
19.51634245762251
17.74129990745381
16.19558971973791
14.8717562043718
13.73974775329074
12.74482759394101
11.85669362807411
11.05725367182634
10.30278508797435
9.528478043492683
8.69182346422669
7.806309657875452
6.95851846592377
6.306293180658576
5.989084539077556
5.904491898546838
5.88965015215049
5.887351436381377
5.886918362075374
5.88674858622593
5.886602225979987
5.886447863657693
5.886282756221704
5.886106291126613
5.885918283099433
5.885718886682679
5.88550835509655
5.885287155762744
5.885055788694489
5.884814141032483
5.884568319878713
5.884324336651578
5.884073805469146
5.883816185528204
5.883552656300253
5.883284998763499
5.883015031778434
5.882745019850971
5.882477830782694
5.882253164430122
5.882054069304473
5.881886143639487
5.881758262777094
5.881681085168853
5.881668493773745
5.881766548110402
5.89060625767699
7.144764868114736
23.10591740450953
1142179.427854555
209445.9285095869
73143.08460198229
35250.53970656061
20357.46443711573
13087.19640570654
8999.453942663849
6505.551139578709
4905.170899949879
3830.672829973201
3073.297895346705
2517.898416008555
2098.931641120984
1775.333348505218
1520.18565824527
1315.292149740754
1148.057365106104
1009.581876668603
893.4605839737392
795.0037925869863
710.7189138364752
637.9553362425589
574.6518641382213
519.1459250448621
470.0277585262107
426.2617209317698
387.1345421533837
352.0518018782273
320.5139649256568
292.0979600948914
266.4428872105628
243.2388515269829
222.2181289142798
203.1481486832653
185.8258483286768
170.0731038171321
155.7330105322494
142.6668184411503
130.7514076973726
119.8771763392312
109.946282198373
100.8712337042292
92.57377619278836
84.98394402967004
78.03923482505675
71.68390012686756
65.86835498461772
60.54470659760315
55.65686941714656
51.15128935350315
46.98785430678025
43.1356610530731
39.57013133235471
36.27080803327231
33.21989489215547
30.40156256303341
27.80179717559036
25.40846637075942
23.21088186414065
21.19842537094982
19.36178946602326
17.6947559548493
16.19432034248615
14.86134698591492
13.70018576861221
12.70110849327635
11.83126460036493
11.0429402816473
10.31448102575395
9.60055384993068
8.817400779626736
7.921598626327999
6.94338063351438
6.039811657110764
5.4814871867825
5.30797304110446
5.278807754800249
5.27499781560873
5.274433255856224
5.274225411200695
5.274043384729773
5.273853259734027
5.273651111591883
5.273436396454421
5.273209248530429
5.272969883812271
5.27271873204363
5.27245635155749
5.27218274456418
5.271902919650525
5.27162209221854
5.271333917124984
5.271038021398066
5.270735807260276
5.270429310525753
5.270120659360223
5.269812460273748
5.269507843513799
5.26924176157651
5.269005357889414
5.268804994869531
5.268650803293731
5.268555189893568
5.268535232747456
5.268717116875583
5.297615233137419
7.820629145239798
25.80913069795308
1142177.668063927
209437.0417030635
73122.4997726329
35222.90321265873
20336.42076206726
13081.84617915876
9002.566621093556
6506.941372846003
4900.880218005736
3822.580467282381
3063.429252116157
2506.995668924278
2087.501252153781
1763.767008966717
1508.77787703998
1304.252236704612
1137.524976507338
999.6429335824864
884.161286316515
786.3622306871991
702.7343913571766
630.6156514426269
567.9386867867544
513.0404881792509
464.5007736182237
421.2746650490483
382.6446827768993
348.0187974229676
316.8998215505759
288.8670125110093
263.5617847542685
240.6765067477155
219.9456636153151
201.1388083821518
184.0549048613556
168.5177566714223
154.3722799304725
141.4814439621208
129.7237404441468
118.9910867409168
109.1870673335628
100.2254782721993
92.02909944106936
84.52864252938983
77.66184509787043
71.37268525755051
65.61070354046427
60.33041127559605
55.49081782063479
51.05517070049258
46.99098861923343
43.26128868266895
39.82513321333104
36.6486618719784
33.7070696006872
30.98184590457871
28.45877341038643
26.12643109340089
23.97529188101248
21.99721154221766
20.18511652930537
18.53054775007541
17.02492919431404
15.66285320738437
14.4417415098216
13.36010850037542
12.41669707612377
11.59150179954169
10.84609479501769
10.14921278799255
9.463950777912594
8.721452905591075
7.840587498458494
6.808752707833444
5.763634613818841
5.066649901155422
4.849446991577088
4.816665397626483
4.812977499465805
4.812467735104036
4.81225081668071
4.812048062329371
4.811834344873004
4.811607449164133
4.811367330080143
4.811114182250538
4.810848370726359
4.810570431317446
4.810280399043063
4.809982489482859
4.809681305222213
4.809371877959237
4.809054029982144
4.808729327741351
4.808400016881198
4.808068516708591
4.807737795245901
4.807411638994736
4.80712218073604
4.806864689115427
4.806646081423049
4.806477438466053
4.806372092357854
4.806347241511324
4.806757922991643
4.889985739094231
9.08545309519152
29.87466546238981
1142176.051849282
209429.0976860245
73105.51320306248
35205.50764849592
20338.28072167194
13116.62928860759
9058.868131955362
6564.544730676111
4949.165826184495
3861.954178064619
3097.328769365538
2536.150160708315
2112.411628458309
1784.871911353865
1526.538198143054
1319.121448357956
1149.923824843298
1009.948495494395
892.705542969657
793.4348265317432
708.5857009027728
635.4569736718656
571.9366832380956
516.3026711210267
467.1298957757261
423.3794911700262
384.3185296383561
349.3376142130932
317.925816167528
289.6514294761449
264.1470443347778
241.0978825690148
220.2325899905007
201.3159166916742
184.1428570251741
168.5339105774622
154.3312296490594
141.3954567188951
129.6031133586381
118.8444296423676
109.0215375467774
100.046968483409
91.84238689231583
84.33750743082139
77.469165852007
71.18051067511277
65.4203061932354
60.14232902675364
55.30484907065169
50.87017608879792
46.80426703611007
43.07637487252522
39.65898242033593
36.52770854355322
33.65500190478847
31.00972278760078
28.56582192553932
26.30524435030739
24.21521778518951
22.28649393019023
20.51205052037344
18.8862316462023
17.40409629159491
16.05844836115513
14.84236289336254
13.75187173730962
12.7842843306644
11.93714713789367
11.19245081168991
10.50516901770328
9.849792998645949
9.196845129961774
8.474232580251053
7.591686470831925
6.509002531474118
5.376975459653064
4.664912016477597
4.477362137481571
4.454094407857761
4.451787312163265
4.451417661577742
4.45119779078449
4.450977503885825
4.450744726906704
4.450498708027376
4.450239385436917
4.449967053420781
4.449682227736297
4.44938496582866
4.449078915029324
4.448768222961715
4.448448872363135
4.448120815952664
4.447785676338876
4.44744577350929
4.447103711908445
4.446762619465978
4.446426554958133
4.446124765336339
4.445856077863856
4.445627676733497
4.445451278239013
4.445341261221937
4.445311290801353
4.446257098190313
4.639057574698565
10.5340299560408
33.65810704900182
1142174.950809787
209423.5623158308
73092.7309178017
35188.73179810905
20327.64886948149
13121.84658022139
9077.761986629708
6586.715118707252
4967.768841478972
3875.458402187955
3107.166529349373
2543.524460492032
2117.798900015615
1788.640998497381
1529.022652521172
1320.608536751716
1150.649563967479
1010.100931300928
892.4318560779955
792.8494369092155
707.7780341417944
634.4984075185403
570.886302042597
515.2115341915262
466.0362163637239
422.3039372741314
383.2755298474579
348.3368307671371
316.9733313850884
288.7506541321123
263.2994285495161
240.3034513121906
219.4903647054936
200.6242357098779
183.4996108334221
167.9367153114587
153.777550630529
140.8826971759378
129.1286815414571
118.4057868791907
108.6162318481396
99.67265105437907
91.49681999757269
84.0185661545499
77.17483118516023
70.90885934038441
65.169497314103
59.91058763611804
55.09044515188153
50.67140209313698
46.61941607042495
42.90372983124323
39.49658123240806
36.37295375682599
33.51050471207802
30.8894709162612
28.48559640411048
26.27242000546612
24.22990049032626
22.34429875614684
20.60624319785011
19.00919270583476
17.54837729718334
16.21983609253902
15.01834089068508
13.93750977357253
12.97274347686738
12.12092685512087
11.37668494847486
10.72323408098357
10.10256635602539
9.489391738811497
8.857857070493901
8.130338686628841
7.21118508609961
6.048594914244568
4.881607173583725
4.287477011538656
4.173643332278667
4.1624016868993
4.161336908612423
4.16106681079477
4.160841498940455
4.160606611336945
4.160358436823644
4.160096875460449
4.159822204199266
4.159534923366675
4.159235113125743
4.158926005909124
4.158611397254221
4.158287975817313
4.157955809092437
4.157616548956129
4.157272551179552
4.156926497169414
4.156581684228584
4.156242148595668
4.155934745234607
4.155661026086083
4.155428284374993
4.1552485149523
4.155138660690265
4.155105814052945
4.157165174566695
4.527751632123339
11.82292258104629
34.76559379535373
1142173.893339181
209418.3076760206
73080.98888042434
35174.89895789853
20323.96232874195
13140.99235560529
9119.28035673106
6637.372677901079
5016.269494556511
3917.067632377758
3142.461236132231
2573.927223521237
2143.579937045963
1810.258581021181
1547.026519894096
1335.541517693666
1163.002731900527
1020.300615027635
900.8413895808054
799.7764760711326
713.4824443062249
639.19785918375
574.7573252917574
518.3836345476226
468.6192326211844
424.40352892062
384.9767843286646
349.7087774688829
318.0723514166485
289.623070807854
263.9834954924456
240.8308958086553
219.8875925090164
200.9132839122175
183.698920513658
168.0617553507103
153.8413224576852
140.8961501450325
129.1010502175353
118.3448680206416
108.5286111865233
99.56389284293583
91.37162122534708
83.8808838510891
77.0279876315869
70.75562932065706
65.01218097094474
59.75106669523424
54.93021802105232
50.51160503024204
46.46082840526499
42.74676722377605
39.34127179109122
36.21889928733069
33.35668479274888
30.73406581429814
28.33255621765471
26.13608245168102
24.12351842741244
22.27266677997421
20.56832168764965
19.00063397520722
17.56321752244431
16.25182070640987
15.06321771745333
13.99350209208925
13.03721959377612
12.18994387938149
11.44839929657367
10.80512691714691
10.23626041903938
9.668877556736922
9.087942365752502
8.46140633109221
7.703849002339688
6.704695609778971
5.434475096027396
4.350219188584693
3.974475147809225
3.926669241643995
3.922736457506519
3.922272738930314
3.92203520117363
3.92179927382619
3.921550867608493
3.921289150196256
3.921014340630292
3.920726927872884
3.920427010662843
3.920117500339679
3.91980191954669
3.919477497196696
3.919144391856104
3.91880427162695
3.918459505516587
3.918112844149431
3.917767650730237
3.917427892583752
3.91711857440338
3.916843298740224
3.916609407187384
3.916428496202446
3.916322772574755
3.916291634214667
3.920361794554947
4.530206876705408
13.0275930575154
38.6534848605272
1142173.130158763
209414.452617116
73071.90686358484
35162.39411550603
20314.85469081791
13143.52869756925
9135.291486434437
6660.222146523592
5038.939244438527
3936.271871721427
3158.386577203531
2587.335259408051
2154.724039902719
1819.40446067021
1554.464223117646
1341.549086125017
1167.826485443936
1024.149599755114
903.8891064591577
802.1656351744444
715.3307308351108
640.6036684216186
575.8049630695868
519.1475754167154
469.1626773642997
424.7712951745664
385.2046864119242
349.8254559215177
318.1007633549557
289.5816566127667
263.8871121607303
240.6915483004416
219.7150153353545
200.7153983374737
183.4821821410882
167.8314359475084
153.6017315046633
140.6508123135049
128.852847704902
118.096155069415
108.281306558765
99.31955574171963
91.13151409438979
83.64602327926301
76.79918443082575
70.53351874769152
64.79723968143834
59.54362632357473
54.73048008291072
50.31965061393123
46.27662584077135
42.57017387336429
39.1720327545279
36.05664123724242
33.20090894426652
30.58401847201954
28.18736965906603
25.99437843659913
23.99050942094796
22.15756750476982
20.47579430927419
18.9310412155058
17.51410366555645
16.21909124669898
15.04221936632755
13.98075641307536
13.0315139772103
12.18985745023357
11.45194354282542
10.8142609636904
10.26563700476717
9.767139227508002
9.233686720418305
8.666095395230688
8.016952726366299
7.192239269133545
6.055181707492426
4.708237896891278
3.900236001370745
3.737248530701144
3.722993349778049
3.72185491171807
3.721578598337381
3.721341660824547
3.721094269359157
3.720833758198986
3.720560240092885
3.720274189980525
3.719975720754325
3.719667488587805
3.719352790202454
3.719029273435647
3.718697171051994
3.718358156751342
3.718014603235122
3.717669285675309
3.717325626104155
3.716987521975604
3.716678416893705
3.716403499894985
3.716170312980837
3.71598900432342
3.715890004051044
3.715866317550418
3.723148340638792
4.611433874348037
13.93891779061602
40.18484227825937
1142172.393556722
209410.7536472279
73063.31665721093
35151.07485201398
20308.31451291118
13151.30846620133
9160.821307889546
6696.821040626777
5077.483131017382
3971.397527794152
3189.261188376546
2614.249010711573
2177.855116537395
1839.058571271031
1571.040376619288
1355.461887077535
1179.465053883515
1033.861364906907
911.976743498422
808.8899847171186
720.9155664355518
645.239720917781
579.6511377559726
522.3272910795722
471.7812155907554
426.9248695646031
386.9715733737572
351.2697591194242
319.27529850806
290.5301873951468
264.6460644526133
241.2913665527993
220.1812322429355
201.0694907988452
183.742261970466
168.0128105853233
153.7173634152413
140.7116925512862
128.8683086235569
118.0741306561112
108.2285511921809
99.24182342484728
91.03370996965073
83.53233180913391
76.67317395977187
70.39823028428148
64.65526350896579
59.39716060502057
54.58137917351249
50.16946112863833
46.12661314610108
42.42134002699456
39.02512715174262
35.91216339754202
33.05909977493659
30.44483999076651
28.05036210285519
25.85866818453882
23.85461121848736
22.02501474396232
20.35465310855235
18.82631436342066
17.42661170370316
16.14702126804895
14.98226368298131
13.92911745748969
12.98537799222506
12.14824503879882
11.41368286235768
10.77817252117114
10.23718816235118
9.771303036483392
9.311685269468423
8.795631841351073
8.221993827324436
7.520394734402586
6.566297189025875
5.238709419830417
4.016036109110895
3.600641010090919
3.554158037445018
3.550879914495073
3.550482936581656
3.5502411796507
3.549995241884225
3.549736595983834
3.549465074014186
3.549181132619158
3.548884894770311
3.548578806485389
3.54826598058369
3.547944400075057
3.547614352851695
3.547277509131624
3.54693622973946
3.546593309790987
3.546252185382544
3.54591668272817
3.545608924816323
3.545335267816771
3.545103808603941
3.544921978381296
3.544830867576148
3.544820272986185
3.557032059771772
4.753542087919394
14.4280188548161
36.03196231253364
1142171.843011691
209407.95757464
73056.59909208347
35141.37116580887
20300.14658993734
13150.99792054611
9171.527922016368
6715.222781209673
5097.826133564788
3990.026751376365
3205.561865399906
2628.452443755612
2190.003009055077
1849.294234243966
1579.58101579102
1362.542012790431
1185.30600953788
1038.65910062442
915.8991882583057
812.078966055249
723.4907069394309
647.3031409129438
581.2923753110086
523.6280152903024
472.8095848196027
427.7303954782069
387.5942867505487
351.7421405526652
319.6238111191539
290.7764851072712
264.8079398287574
241.3834996559539
220.2157838159353
201.0565741164347
183.6903204004974
167.9289215831337
153.6074820531449
140.5808521915679
128.7207779957319
117.9135457098949
108.0580191257569
99.06400719824629
90.8508959906264
83.34648152115612
76.4859675473288
70.21110448098639
64.46944131006431
59.21367806017878
54.40110494274155
49.99311500775322
45.95477759607945
42.25446688912831
38.86354024053426
35.75605665223008
32.90853268944559
30.29973029159978
27.91047563116523
25.72350406602699
23.72342368616147
21.89670790593422
20.2318392584321
18.7135864004687
17.32604791382806
16.05837959715612
14.90368715209037
13.85775651224307
12.91808390232281
12.08294787578558
11.3496262402526
10.71454601297962
10.17454247659115
9.720130168945495
9.316580649512639
8.862797551758682
8.344260733813828
7.736380846837968
6.936115711791634
5.770242080629962
4.333597927707097
3.543143443172623
3.412549668443424
3.403073772916716
3.402333524202352
3.402076582923971
3.401832060732396
3.401575743410942
3.401306718431973
3.401025401247963
3.400731921802778
3.400428550824411
3.400118241567437
3.399799247025208
3.399471899534529
3.399137859857597
3.398799473159565
3.398459524948875
3.39812146313656
3.397789046303256
3.397483242435928
3.397211180142115
3.396982110215352
3.396799487103456
3.396716575436247
3.396726314293015
3.416490670553335
4.958013825820429
14.82583315488477
33.69576545262073
1142171.318466224
209405.3001391331
73050.24810045442
35132.33656417164
20293.0352062291
13152.45734120155
9185.49791729446
6738.983031098875
5125.105281522432
4016.139916786147
3229.227933206113
2649.683903872756
2208.638221402942
1865.367752256889
1593.281690315829
1374.125351430012
1195.041292389573
1046.803098158941
922.6853118116569
817.7145197517507
728.1579752213626
651.1615910388311
584.4800431204444
526.2602446798873
474.9786416721658
429.5158652024775
389.0606993143522
352.9422209014985
320.6009437294407
291.5665833615634
265.4408926052222
241.8842945628017
220.6053891706391
201.3526447463331
183.9077671221385
168.0803689986112
153.7036418550486
140.6308284744779
128.7323269706291
117.8932838778212
108.0116015659312
98.99627432573983
90.76598952112997
83.24794391861094
76.37682477806948
70.09393264214708
64.34642686265646
59.0866675658708
54.2716472971415
49.86249517851942
45.82404950787318
42.1244817561992
38.73496628707351
35.6293929266728
32.78411530263831
30.17773326753387
27.79090247749843
25.60617212390357
23.60781843637877
21.78200289705479
20.11672455994701
18.60101804009895
17.22103528411616
15.96262713201745
14.81666797618047
13.77752099494869
12.84191861385721
12.00803545398766
11.27478058965061
10.63929572092569
10.09834213402475
9.647551427088169
9.265728248793442
8.885148340369085
8.420058413468315
7.877900975078256
7.190246198487052
6.207172223867159
4.779288456047778
3.603486550102689
3.299927087634619
3.274096920774542
3.272447837084559
3.272148322879025
3.271904185775733
3.271650328711457
3.271383985407956
3.271105491287913
3.270814980069056
3.270514571460209
3.270207083905457
3.269890993631841
3.269566664525858
3.26923574237699
3.268900547352347
3.268563857850317
3.268229099807182
3.267899963719377
3.267596464439811
3.267326045332914
3.267099854330174
3.266916222878021
3.266841306113542
3.266883012528765
3.298443940748559
5.234558274172062
15.2296496203718
32.06337800926751
1142170.934698362
209403.3292865093
73045.35259191386
35124.67181764281
20284.94674155305
13147.71500928389
9186.683078667245
6745.070679304955
5132.920426508887
4023.39728593684
3235.715964037029
2656.466684118326
2215.452726156106
1871.848843393011
1599.202579234485
1379.379524309852
1199.606541037198
1050.706428936509
925.9785080199307
820.4593629314602
730.4182770192563
653.0000248828037
585.9583701385288
527.4420395534609
475.921132398732
430.2606032121181
389.6419917966236
353.3883467082723
320.935217741497
291.8082522988311
265.6058714245113
241.9857730702546
220.6543289318137
201.3581786976237
183.8775247301735
168.0207363129835
153.619985698706
140.5276754990232
128.6135091128246
117.7620623229314
107.8707652943711
98.8482200703121
90.61278471110143
83.09137317316417
76.21842771447761
69.93503501271438
64.1881635086266
58.93000369138841
54.11739501333914
49.711328778424
45.6765118951884
41.98099014127551
38.5958174049949
35.49476865489174
32.65408708377015
30.05226511717309
27.66985237844316
25.48929143622052
23.49477659928048
21.67223517514045
20.00937674639897
18.4954624487862
17.1188377652746
15.86631661000371
14.72690604878914
13.69351446008458
12.76184123119728
11.92957954036341
11.19564710960772
10.55859812956256
10.01556733261378
9.563436087547874
9.191971779259427
8.859576260150275
8.452210588955342
7.960454087669457
7.360932523209795
6.532028052515249
5.247981753528468
3.804186200106086
3.226159824136739
3.16125558894249
3.157343511353056
3.156937712751175
3.156691395694804
3.156440054799359
3.156176551454126
3.155901043392209
3.155613661836738
3.155316396231371
3.155011944596809
3.154698968678151
3.154377858514782
3.15405024250428
3.153718415634671
3.153385132129988
3.153053798508198
3.152728025160837
3.152427073205007
3.152158210617735
3.151935314900528
3.151750541465734
3.151683569826216
3.151779950771344
3.202370420693784
5.596898423025135
15.64161772756533
30.49021128023378
1142170.563527657
209401.4415629157
73040.75780036415
35117.84127532498
20278.75878853047
13146.61086184268
9193.723022665499
6758.969099681237
5149.444073044616
4039.159156831774
3249.896260115756
2669.492804790226
2227.307976743484
1882.396464172629
1608.40933545517
1387.301924511932
1206.351680248428
1056.402421604318
930.7567979015922
824.4455320683185
733.7281581260995
655.7383809360621
588.2184007716648
529.3037011191531
477.4507375702829
431.5155856429919
390.6689663102537
354.2253861845668
321.6135840915193
292.3537456157277
266.0398876647939
242.3261294617672
220.9159142926037
201.55347724962
184.0170408950752
168.1133356198651
153.6731694587026
140.5478080898627
128.6060056617993
117.731546399047
107.8211977087364
98.7830022845597
90.53484304848088
83.00322688146818
76.12224161715578
69.83266637761547
64.08120018762436
58.81979820843841
54.005095005004
49.59790241366375
45.56277305630594
41.86761849492746
38.48337522002843
35.38371133563845
32.54476966557698
29.94494275288107
27.56467739637297
25.38630340913624
23.39388524459395
21.57310313781356
19.91131000290691
18.39759663620496
17.02229532513354
15.7734297984435
14.63864248124339
13.60965273337164
12.68121524712079
11.85031340776799
11.11550570839993
10.47629256782705
9.930651458491132
9.475656995138541
9.1062512591207
8.794684737481845
8.455832835679882
8.014446515652935
7.479109304711684
6.763459968284064
5.66178704836102
4.12554285232183
3.210075308905688
3.063650403565892
3.054418573173613
3.053762430531341
3.053507906061569
3.05325886133727
3.052998209961355
3.052725711529162
3.052441484866158
3.05214740460678
3.051846065059076
3.051536285777121
3.051218475096075
3.050894241995816
3.050565851083867
3.050236041356977
3.049908182678573
3.049585770944
3.04928759004573
3.049020193115164
3.048801013548635
3.048615126111907
3.048556483849931
3.048750841987349
3.130240922025253
6.052131389054849
16.18800922540306
30.87006879293471
1142170.233789623
209399.7580544297
73036.61300017807
35111.5061270824
20272.56301469548
13144.38012565544
9198.503319149511
6770.394611964294
5164.242183900909
4054.153518538772
3263.608841370373
2681.761606663779
2238.150169208765
1891.790019092416
1616.421201035113
1394.055225391209
1211.992441131499
1061.078665507327
934.6077240523421
827.5969728240083
736.2916363077444
657.8119183108436
589.8878558780103
530.6435107511138
478.5224089589756
432.3682164710618
391.3422027669715
354.7513729133127
322.0184766632696
292.6589082123139
266.262836585344
242.4812777008349
221.01516496273
201.606687651531
184.0323969688663
168.0976525281104
153.6321354037001
140.4861857098986
128.5277922002938
117.6401074046609
107.7193764379109
98.67320720315186
90.41911764952378
82.88330119285483
75.99957941637587
69.70849931689719
63.95656071795286
58.69554469287842
53.88193344872182
49.47640625388247
45.44339876755991
41.75071959547589
38.36921379928994
35.27246926310117
32.43655793878255
29.83980859856386
27.46260850257147
25.2872287714803
23.29767320655062
21.47954995307873
19.82004944549351
18.30804215049487
16.93373836744226
15.68651382546435
14.55466260760311
13.52877762859381
12.60273739765652
11.77283763509569
11.03721510708502
10.39524176863705
9.846118007468585
9.387374630746137
9.015255390642519
8.714859681966667
8.428959252744884
8.036657586403848
7.550276933385718
6.92463260384821
5.991642309598248
4.514156873179495
3.273995273560342
2.982789425601877
2.96175674453664
2.960543328331279
2.960267888266082
2.960020650754249
2.959762825184469
2.959493321960879
2.959212234813988
2.958921337659794
2.958623131922463
2.958316571503929
2.958002080156068
2.957681247665449
2.957356309465936
2.957029978026389
2.95670560840005
2.956386516879375
2.956091301462942
2.955825255633143
2.955610182450626
2.955423108724624
2.955373764311394
2.955754147721252
3.087337797485415
6.594821885302744
16.76684046197494
31.13669364684211
1142169.924003209
209398.1775164657
73032.73116796975
35105.60952399317
20266.92324051838
13142.78121850316
9204.142077808927
6783.248700127489