/*--------------------------------*- C++ -*----------------------------------*\
| =========                 |                                                 |
| \\      /  F ield         | OpenFOAM: The Open Source CFD Toolbox           |
|  \\    /   O peration     | Version:  v1812                                 |
|   \\  /    A nd           | Web:      www.OpenFOAM.com                      |
|    \\/     M anipulation  |                                                 |
\*---------------------------------------------------------------------------*/
FoamFile
{
    version     2.0;
    format      ascii;
    class       volScalarField;
    location    "0.00000067";
    object      omega;
}
// * * * * * * * * * * * * * * * * * * * * * * * * * * * * * * * * * * * * * //

dimensions      [0 0 -1 0 0 0 0];


internalField   nonuniform List<scalar> 
44064
(
1142175.612888907
209554.1452659005
73333.10489265804
35542.16336320676
20779.54556031622
13713.80721515934
9849.454688454138
7415.50447044421
5712.725832543434
4543.371935505507
3707.597377727415
3089.917549307541
2625.788903461496
2268.200639985072
1985.960769751861
1758.053649188264
1569.604436189017
1409.963202235832
1271.775332369486
1150.184419601792
1042.104604465125
945.376026085951
858.5256582650738
780.2876596985761
709.6193139826547
645.7196370855994
587.8519352163484
535.3914464039581
487.9489498051968
444.9567893690959
405.8465979471648
370.1162179883128
337.3385856898211
307.208747450088
279.5444061195001
254.1653673397967
230.9411574615407
209.6747748613865
190.170759519009
172.2609021019582
155.7581334840069
140.5193053895559
126.4220189574181
113.3668772714697
101.5190870520143
90.91004138271424
81.28779820407519
72.34419034368203
63.84818331393036
55.76229776637734
48.16966860862154
41.14635112051699
34.74287537675927
29.00370479840011
23.97227239526916
19.68401374117622
16.16121698488601
13.39053222133643
11.31937896727869
9.87087207770267
8.952926810627631
8.437136493605282
8.179418912791469
8.06357025039337
8.016109804071416
7.998119242925257
7.991738926241918
7.989622525879691
7.988975572793242
7.988790448342623
7.988737079028724
7.988722265651929
7.988718225365745
7.988715558664071
7.988713052006577
7.98871057703843
7.988707892773023
7.988704990406724
7.988701883582992
7.988698581787066
7.988695099834015
7.988691457127778
7.988687676070744
7.988683783274193
7.988679816337743
7.988675782048701
7.988671728795286
7.988667705461717
7.988663806173878
7.988659536318556
7.988656097327123
7.988653027123585
7.988649366408731
7.988646188415973
7.988643436484651
7.988640909959803
7.988637908452258
7.98863610982507
7.988635036638201
7.988633858284256
7.988632996818065
7.98863249540416
7.988632432094543
7.988632981072047
7.988638414044772
7.990090220779845
8.328772441523014
32.02827625241211
1142165.92098063
209379.1674946905
72983.22751818928
35019.99639973038
20157.20494527511
13043.36978945003
9168.770766580052
6863.315038566452
5390.052804354397
4381.20416045066
3655.289590204193
3122.656431399222
2720.79660855805
2405.17090033158
2148.136947251868
1930.029116429166
1740.381686402164
1574.34552812002
1427.659639868227
1297.140016108232
1179.734920909856
1073.733976340605
978.0519412403876
892.1357493214806
816.2239378571446
748.7477527679217
688.9546438042473
634.5842107948648
584.8574198310082
539.1604188469673
497.0118947003781
458.0297334417154
421.9080335259948
388.4018424843524
357.315921464964
328.6238289712296
302.1731660309173
277.9359024225938
255.6209009098463
235.037780464716
216.1364440889757
198.8155050921243
182.9047602364706
168.2519855811409
154.7351903406103
142.2461414693898
130.6570806699205
119.8249864635601
109.5423855511269
99.48308559102631
89.3955664498431
79.02700017370577
68.3439929759798
57.41400126056048
46.80064139646964
37.24423899730134
28.97208924512348
22.08887818507433
16.66959479422623
12.68049361688246
9.947566668491199
8.249159909018426
7.352032376735702
6.958287178656025
6.809313756124773
6.758780108995461
6.742875234442424
6.738133645580873
6.736723995371874
6.736319785652097
6.736211374315812
6.736161016757399
6.736117063105989
6.736071388589142
6.736019499023405
6.735959622214503
6.73589138998114
6.735814675147096
6.735729384953212
6.735635486894862
6.73553301866722
6.735422091752038
6.735302899000742
6.735175721920911
6.735040964609029
6.734899120893177
6.734750678016452
6.734596349825713
6.734437178755141
6.734273473494262
6.734105688855355
6.733941246892522
6.733776903627797
6.73361157548492
6.733445741916652
6.733279246368535
6.733122443557646
6.732999633103059
6.732891727077559
6.732801126605845
6.732732342004748
6.732690461564922
6.732682053490794
6.732717313386374
6.732836180584652
6.738490396244899
7.625932386249473
36.67846027455705
1142163.507212164
209365.7184420328
72946.32692193525
34948.85623018141
20045.0791113364
12886.75420392273
8964.987959904947
6613.97531609045
5111.063410786046
4092.98959421029
3364.183072280693
2819.854004071687
2411.673401267058
2100.133582963135
1853.809281551757
1651.438205968794
1480.634614854422
1333.863115981699
1206.81074771795
1095.275021930056
996.9030395250089
909.9196480210787
833.2018698439331
766.3096785029427
706.6847032210958
653.3982505253657
605.8828117506858
563.2381711406979
524.405729004718
488.7940266909104
455.940621746145
425.4834260786756
397.1398434955503
370.6906402496541
345.9670030694908
322.8396787713041
301.2085631948438
280.994439207389
262.1308607774217
244.5595744519109
228.2278389148811
213.0033864801449
198.8193454460943
185.712234242274
173.6488320513583
162.5574839000256
152.3382840613896
142.856672716116
134.00815602629
125.5775141611763
117.2586903754136
108.6426648723183
99.29245306457156
88.63001715860889
76.2701221840619
62.59937131326951
48.79719328882845
36.14765335195927
25.81021932660427
18.13060152715405
12.83466088428374
9.428770243606442
7.445439186080873
6.466549563091235
6.073344047259906
5.940500784700578
5.900594821785788
5.889535339604588
5.886584728002845
5.885792769633282
5.885566885831818
5.885473798286648
5.88540285600935
5.885332377485672
5.885256348515112
5.885172624196064
5.885080613560773
5.88498003049352
5.88487062279289
5.884752197232766
5.884624622698029
5.88448783265972
5.884341835204798
5.884186718889969
5.884022678524439
5.883849990074803
5.883669026087084
5.88348029898052
5.883284688804599
5.883082502485039
5.882873904089703
5.88267282727327
5.882469110527545
5.882261619038478
5.88205133328982
5.881838854855009
5.881634702015233
5.881461743536311
5.881305895742738
5.881171900364729
5.881066496272523
5.880997577695782
5.880974994078146
5.881011858726178
5.881192737637626
5.893474664075677
7.399263247344228
37.3735261745251
1142164.491632388
209370.9480930891
72960.4332732672
34974.49359126526
20080.24315652789
12921.77355834284
8980.005516888123
6582.304901160061
5015.834339627384
3942.415974659994
3179.800011668321
2621.539804279321
2201.617693471013
1881.09112728632
1629.693428705176
1427.604295548107
1261.866105412465
1123.54548918244
1006.321577359227
905.7128047816337
818.7750855370286
743.7271376590304
679.0616681633767
622.3524421492816
572.4201647920453
528.2891089489405
489.146307122896
454.3205758599563
423.1914511808172
395.2485168177895
370.066280964651
347.2857281729758
326.5946365379837
307.7169062264211
290.402732973737
274.4234804008846
259.5711380044323
245.6599531548226
232.5303978280676
220.0545536034529
208.140544866835
196.7340921850788
185.8175293800659
175.4046871562145
165.5045700256496
156.1320939850976
147.2540646201745
138.871928961423
131.0288334162883
123.7167879959716
116.8071933938405
110.1959773199187
103.7071670674307
97.05107379964598
89.78974781874659
81.3556065078276
71.07014393065651
58.55762260944182
44.52672813811421
31.19486063427272
20.57808248601998
13.33755049584618
8.989766558247958
6.715860789632658
5.738027940430229
5.402259340145057
5.305676507698504
5.280635980804592
5.274488718354122
5.273009449063239
5.27263625014348
5.272500824664526
5.272410400759476
5.272325438429188
5.272235549234436
5.272137714116571
5.272031186121067
5.271915614427687
5.271790703363397
5.271656225728115
5.271512018295311
5.271357984445166
5.271194106597601
5.27102045215574
5.27083720762801
5.2706446649418
5.27044317811883
5.270233227437171
5.270015745204412
5.269791230055296
5.269559986050165
5.269333581135008
5.269104096199712
5.268870868412955
5.268635202027815
5.268398093370402
5.268168800542715
5.267968244266148
5.267788023935958
5.267633389200253
5.267511852737498
5.267432897586769
5.267408178464025
5.267452208410573
5.267724040171379
5.289753606175257
7.461859396854782
42.55961444469782
1142165.436144766
209376.0854335435
72974.81739108554
35002.66335733952
20124.7379445715
12981.558209047
9048.637882639563
6647.351035880314
5063.444760521985
3966.74450022542
3185.299244444321
2615.898254200272
2191.442048352546
1865.243894131863
1609.242909501051
1404.420090736785
1237.670066239061
1099.719007549957
983.8245128228274
885.0390579533181
799.852684792321
725.7893328057397
660.6375462733478
602.8474622210334
551.5952690695361
506.0245344548446
465.4198176173842
429.1409299696647
396.6084153753017
367.3331916262707
340.9058740337802
316.9820680532029
295.2694113702183
275.5175697643677
257.510678657709
241.0605366850805
226.0007388705749
212.1832536136913
199.4766990921728
187.7660156041321
176.9523205954972
166.9519308050544
157.6984155929344
149.149294364212
141.2465792539828
133.9059901967302
126.998476618052
120.4105523736295
114.1188519425282
108.138540550484
102.4652744837538
97.03662020105318
91.72405185076654
86.31434760202593
80.77389524210699
75.2791257867429
69.82628443048984
63.88029358886768
56.70496076312155
47.66804827311655
36.65001475344362
25.3143864223872
15.93965008533629
9.727208738854863
6.480893997392792
5.240265859654003
4.903089676927307
4.829055969299157
4.814110053250442
4.811039079567313
4.810366983518265
4.810187526935318
4.810087953374101
4.809996448149668
4.809900603590285
4.809796984959291
4.809684547709647
4.80956286864408
4.809431621940134
4.809290548615187
4.809139448815259
4.808978188176239
4.808806711757055
4.808625049128851
4.808433311600582
4.808231714060051
4.808020965703568
4.807801390944815
4.807573732973675
4.807338565870629
4.807096266800817
4.806856748468797
4.806613583366753
4.806366517368362
4.806117145565734
4.805866788427577
4.805623880938048
4.805408580708018
4.805215869038537
4.805050924067247
4.804921783121348
4.804838973542383
4.804815431648608
4.804865914966569
4.805253983388592
4.839463643789244
7.545794550631194
38.3986120141817
1142167.791418445
209388.8475210779
73010.07269382341
35070.20542810424
20228.39844857964
13116.95401789092
9202.616534807506
6800.467295305121
5196.584373905483
4069.720439193135
3259.507665031091
2668.244027855006
2226.657966185434
1885.032362927485
1614.479740118528
1397.954669096679
1222.571572321709
1078.708115749101
959.0870192284289
858.2451541798615
772.139661980285
697.8408304367749
633.1751111927452
576.051357094799
525.3361572262675
480.114947046056
439.6673396896462
403.3832500878134
370.7313795926755
341.2501388030414
314.5543909741837
290.3211023012196
268.2772870001779
248.1905221933356
229.861550738888
213.1185905132911
197.8129796816227
183.8159810096824
171.0166229642809
159.3202996843272
148.6493156923274
138.9077384804896
129.9821138678162
121.7809663584352
114.2369972432999
107.3063601104599
100.9365894531276
95.08582932505512
89.71892404054036
84.78535195392311
80.22974860977085
75.99413922572893
72.012563589933
68.20941297776734
64.56292356922847
61.16007880711552
58.06988248629475
55.05795048416856
51.58518192953694
47.18871418919204
42.0506478257028
35.8055071559011
28.10142534165323
19.81403839300466
12.58024068381592
7.654021222696678
5.269009863133646
4.588200932364673
4.468772502904149
4.451664113109998
4.449293954378407
4.44888315681824
4.448754064767662
4.448657411381313
4.448559061203802
4.44845340942697
4.448339101647402
4.448215648096128
4.448082703855267
4.44793999357572
4.447787301418442
4.447624475853595
4.447451442941272
4.447268212667008
4.447074871191245
4.446871640941347
4.44665939792781
4.446438257305481
4.44620888768913
4.445971896028192
4.445727700813777
4.445484999439407
4.445238401049426
4.44498791089659
4.444735274445314
4.444481975569669
4.444235774963735
4.444015550742456
4.443818807751603
4.443650868276291
4.443520076580364
4.443437371675818
4.443416825858725
4.443472708252396
4.444004131585342
4.492885916340986
7.676184510884736
34.63319839245141
1142170.380568998
209402.8246548325
73048.18601982022
35141.64222725327
20334.41221172728
13248.84126010747
9342.924605919467
6928.63373332652
5297.414368675293
4139.084446988789
3302.742595091701
2693.092885712462
2239.16190537649
1891.781341200121
1618.300050146403
1399.830081529385
1222.877285070306
1077.598563459682
956.6902499547193
854.7436105351177
767.7405000038588
692.7547829280752
627.5292339654098
570.097845627699
519.0038423391088
473.2920404247992
432.240126309661
395.2617100711888
361.8643377896254
331.6115351315457
304.1375490215154
279.1345771479261
256.3417637413265
235.5364730002395
216.5274302823444
199.1493368105116
183.258533211453
168.7294790907029
155.4520510291544
143.3295359321818
132.2770855102936
122.2203350636625
113.094655713592
104.8448695079231
97.38250003479229
90.58670583250559
84.35255356525356
78.62413442726071
73.37405202895314
68.56374647432607
64.1619542329493
60.12802865549784
56.41507792397629
52.99014253040316
49.82345199056446
46.92353304651898
44.35991406252008
42.12309498462054
40.10679324216578
38.15501396366764
36.1623209347836
33.99004299350169
30.98670244393178
26.70724577772026
21.29710181164806
15.3001801953142
9.899274683250447
6.19797478629513
4.566352756483722
4.208907192402976
4.163537642693278
4.158771620008756
4.158240367802252
4.158108011210538
4.158006182196233
4.157899991922616
4.157785495374978
4.157662015202853
4.157529202091188
4.15738677804101
4.15723452010601
4.157072270314183
4.156899948678295
4.15671755856385
4.156525183738771
4.156323030249524
4.156111945228503
4.155892065926621
4.155664026558369
4.155428461032539
4.155185823492798
4.154943893498149
4.154698059373618
4.154448506641591
4.154197067274266
4.153945312576861
4.153700440668751
4.153480137420936
4.153283715203595
4.153116587547721
4.15298726095761
4.152906765528361
4.152890278817089
4.152950884190064
4.153660593990715
4.221021648587359
7.922518186215348
33.34318252620344
1142172.289611582
209413.162348066
73076.59845809767
35195.78535025969
20417.09205099094
13356.67384449991
9466.763234987713
7056.089383147762
5416.647107597504
4242.385683274484
3388.359157418906
2762.691412595106
2295.540307551208
1937.754827062184
1655.731686408909
1429.590648382083
1246.140794113938
1095.464441528422
970.1083871102084
864.5255989144742
774.6267828014844
697.3745596019297
630.4680436454547
572.0011545074068
520.047833647655
473.5492325919104
431.7356056700046
394.0093789281761
359.8916511072445
328.9508598034892
300.8255541898351
275.2113911834854
251.8499716286308
230.5200263542119
211.0304732981155
193.2149458329665
176.9275565489723
162.0395652308414
148.4366330966088
136.016558375854
124.6874471910092
114.3661903103938
104.9770991811843
96.45070726506252
88.72275612751548
81.73385151900204
75.43014821829777
69.74627353578079
64.57998218929244
59.83426675796673
55.44996475053861
51.4035463953846
47.68472038203636
44.28014110153121
41.17606240563915
38.36117141267739
35.83463896218311
33.58705922074294
31.60477689308876
29.89997177360516
28.46732652248389
27.34469024905375
26.46044033962887
25.41043670108401
23.62448036375569
20.38481196680446
16.21737003218294
11.56287559814899
7.452104152639718
4.894891714677091
4.054440460923297
3.931696841869715
3.920054842210404
3.919023070338402
3.918855609585951
3.918745301284822
3.918631197058525
3.918508610509039
3.918376889784586
3.918235725994813
3.918084902414789
3.917924263465317
3.917753723235287
3.917573278887321
3.917383015369641
3.917183120345334
3.916974381906407
3.916756986070262
3.916531542614224
3.916298702661784
3.916058946449823
3.91581933572157
3.915575868070168
3.915328860117918
3.915080202352947
3.914831526214068
3.914589576922485
3.914371039638184
3.914176573921869
3.914011649439389
3.913884859224199
3.913807067766243
3.913794811096518
3.913859271215925
3.914792847065131
4.006372458149088
8.287424322733557
32.84753370705271
1142172.186369339
209412.674450079
73075.85963823849
35196.49883856689
20423.33962233979
13374.89258457261
9504.063832394688
7116.430224650873
5496.835454758833
4332.734277252219
3478.898808226942
2848.687206626055
2375.982132952098
2012.265689591335
1723.690002895873
1491.109444213153
1301.829598004073
1146.002877699355
1016.197088789666
906.759521406118
813.4344357955611
733.0381784414666
662.977659838631
601.1947725366427
546.2055930446353
496.9451820242161
452.6131163324578
412.5819879614635
376.3596782665675
343.4951469184936
313.6090159149445
286.3813094900977
261.5401341188013
238.8525679057808
218.1173642524026
199.1591312499632
181.8237134586659
165.9745419365029
151.4897287637627
138.2597283890559
126.1854603096214
115.1767605097402
105.151046470908
96.03217273257854
87.74950583048066
80.23723245824529
73.43369366259758
67.28079171294735
61.72382627017677
56.71217374141338
52.20047015317647
48.15039439339898
44.4870401424132
41.12404388158877
38.01705861624394
35.15653060364199
32.51757036517368
30.10352760855928
27.93256852364265
26.02045528892583
24.41151015266702
23.11851993062751
22.13013530383445
21.44062306032885
20.88745810066778
19.91565209554883
18.16632615445508
15.47850040018467
11.93649935355707
8.134420376079792
5.209027490941309
3.956538476169475
3.739463373078423
3.719748150993764
3.718209714388812
3.718010622927518
3.717892330508556
3.717770682165197
3.717640364832504
3.717500847925848
3.717351868552043
3.717193251183465
3.717024914323612
3.716846850682133
3.716659145702837
3.716461973464464
3.716256066168327
3.716041653692534
3.715819325561427
3.715589742357883
3.7153534012715
3.715116785682095
3.714876379331853
3.714632592206455
3.714387350618273
3.714142327063739
3.713903886282452
3.713687867754301
3.713495965429281
3.71333365843415
3.713209655722867
3.713134287196993
3.713126022967233
3.713193170185008
3.714412834016696
3.83865055832203
8.750985229800129
32.63656449110712
1142172.278963495
209413.2092785543
73077.54957022215
35200.46060055741
20431.16621439624
13388.50881904044
9525.079065508569
7144.854129905619
5529.877681117268
4365.472707986011
3507.112657098302
2870.946093299548
2392.919643515341
2025.285877986403
1734.910105334181
1501.125059750472
1310.878434941495
1154.236591606557
1023.719820704679
913.6445322821592
819.8173324967931
739.1030468643928
668.6945691901329
606.3423530853379
550.7824219384062
500.9882490468435
456.1765322713572
415.7349954956556
379.1924736213247
346.0967325786922
316.0536094142784
288.7257637146587
263.8241310513351
241.100116680117
220.3389305808967
201.3540179334055
183.9824357220272
168.0810389127206
153.5233411869151
140.1969828113713
128.0016771529143
116.8474079418962
106.6527926333656
97.34373652204783
88.85229727504175
81.1157059957151
74.07564335714333
67.67772651236893
61.87111890547997
56.60820777386773
51.84427809990807
47.53717324825768
43.64701153439889
40.136947480602
36.97541342290523
34.13041136798122
31.53692235094564
29.12487554077491
26.87392431248821
24.7962423053364
22.92318952307611
21.29497040024191
19.98913337933822
19.00385407155686
18.3256399128174
17.9007627531135
17.32928725137597
16.18607412982582
14.29414030569425
11.51293646210886
8.126802487337615
5.191743102942699
3.815809967466847
3.569239665217069
3.548266158585851
3.546765341183288
3.546570080289174
3.546445781624623
3.546316995114194
3.546179215027495
3.546032118728675
3.545875589792758
3.545709519099401
3.545533893188535
3.545348804838902
3.545154415796538
3.544951405962046
3.544740042888823
3.544520902138024
3.54429465013604
3.544061796041284
3.543828348933847
3.543591190106946
3.543350797588984
3.543109121055431
3.542867854503859
3.542633041903271
3.542419802456819
3.542230641888758
3.542070986256483
3.541949760824438
3.541876386399553
3.541872012334585
3.541940960143896
3.543534214615363
3.712281194647127
9.296170088640142
32.86858558363124
1142172.213693409
209412.8833595047
73076.84861587686
35199.79329032105
20431.76691972513
13392.45422692732
9534.758186330568
7161.722921789429
5553.066043680148
4391.747642871256
3532.751576490017
2893.943451262001
2412.747652737839
2042.05425330953
1748.749159416877
1512.195837906587
1319.342583664795
1160.288456577321
1027.58056434824
915.5762795854029
820.0579143632872
737.9314443775601
666.8330667995031
604.7626573285773
549.6375932062483
500.2834646370439
455.8564335772096
415.7254831283086
379.4190041029284
346.4993938757152
316.5849234697728
289.3490524474938
264.5113491999396
241.8296853367281
221.0938520401286
202.1203448115869
184.7481031288801
168.8351064388402
154.2556529024977
140.898041835824
128.6625781823455
117.459826366395
107.2090236367618
97.83671392382267
89.27559537428691
81.46355433277664
74.34292204788635
67.85995982436431
61.96449726810175
56.60960810895848
51.7512748379739
47.34804356945516
43.36069629855215
39.75205039130512
36.48704029084688
33.53330882365049
30.85561062581785
28.39581744295521
26.11641046632635
24.00990117105463
22.0798804467548
20.35522490154671
18.87702417616575
17.68246699906866
16.7837821955672
16.18455631767045
15.89656357878597
15.4654191782392
14.61103643481102
13.10855186266095
10.72707245379385
7.615476899416971
4.832296091754746
3.604400895440788
3.413524372378686
3.399235492489029
3.398273763418896
3.398108324161223
3.397978195739782
3.397841896008602
3.397696666698415
3.397542055720288
3.397378072709536
3.397204706115534
3.397022030032368
3.396830212049112
3.396629901635456
3.396421392156931
3.396205241810261
3.395982121083617
3.395752548738689
3.395522139368518
3.395288106022117
3.395050978577205
3.394812716736937
3.394575057188815
3.394343738982161
3.39413323769368
3.393946752006751
3.393789602328241
3.393671035803243
3.393599188775886
3.393598973788229
3.393669201788418
3.395757017042911
3.624629704140889
9.90229439054893
33.50978038341236
1142172.286626038
209413.3273590319
73078.32500272855
35203.49312052167
20439.57093876023
13406.84675141388
9558.169213250061
7195.080254503618
5594.190482217134
4435.486165423215
3573.739183698241
2929.667472702879
2443.290259422991
2068.594526379897
1773.132111692369
1534.59042121008
1338.952845031577
1177.137988682759
1041.939155554797
927.7974768237207
830.4949868015041
746.8279350827717
673.9323156545835
609.4991252999513
552.2085963138148
500.996141133912
455.0421087169441
413.7090113685103
376.5044858720067
342.9667547145951
312.6661726290233
285.2296586764307
260.3351939789281
237.705010250467
217.0991660361589
198.3098820010912
181.156732993281
165.4824645898033
151.1494038866332
138.0365542289834
126.0371754952524
115.0566373630604
105.0104332289303
95.82236701592473
87.42318542940836
79.74962092492322
72.74367409217004
66.35205738800219
60.52570889204057
55.2193512798351
50.3910569788878
46.00181589674978
42.01510134291167
38.39648909762896
35.11418030016426
32.1390412367925
29.44339955312057
26.99240502437685
24.77667301947426
22.76992545146202
20.95568822846293
19.32135121616599
17.89591453469552
16.69560140920872
15.7349819495802
15.02634987514096
14.59344999241584
14.40561644281208
14.06801760775234
13.35351004076188
12.00721018777591
9.75815503639736
6.768914548856879
4.267687564542393
3.379452284482062
3.275249915197662
3.268527790197877
3.268054326099525
3.267911258641548
3.267775922117472
3.267632317007513
3.267479627873372
3.267317716063492
3.267146558039625
3.266966250129863
3.266776948313903
3.266579264750645
3.266373513558743
3.266160244197138
3.265940128654302
3.265713692537227
3.265486216527452
3.265255193805328
3.26502119428989
3.26478618519719
3.264551923564637
3.264323900928304
3.264116042018054
3.263932158192418
3.263777307088437
3.263661397620874
3.263590585060439
3.263594835679337
3.263666489478096
3.266409104334679
3.574298048755525
10.54510828033735
34.52507410419457
1142172.020993067
209411.9385270228
73074.78742981494
35197.74786712322
20433.24276572215
13403.42877171343
9562.27972582849
7210.47178110041
5621.266947701761
4470.557648708141
3611.291968426579
2965.478446277628
2475.737322016266
2097.570450025773
1799.520228257611
1558.488337103302
1360.615325768958
1196.464321052843
1058.849121776075
942.3488897502408
842.9291492582724
757.5743392975698
683.6259794838641
618.1548327570099
559.8317420845633
507.5909911821066
460.6355410046264
418.3587492662395
380.2965751029266
346.0109117037354
315.0697069307445
287.0919549653694
261.7454539149286
238.7415308542099
217.8294481056192
198.7911074170591
181.4363034540966
165.5987459603049
151.1327688555191
137.9104748791505
125.8192677000372
114.7596580553467
104.6432594530567
95.39103998891343
86.93177670679327
79.2008073107262
72.13913267753331
65.69278040341732
59.81231114054101
54.45234716000017
49.57115226844667
45.1303162939944
41.09451730856168
37.43138484291742
34.11159534091589
31.10755532886272
28.39746723413848
25.95673236855105
23.76644771328887
21.79801403957469
20.03257972866833
18.46291114163038
17.0876575513472
15.90747950152661
14.93215222434568
14.17405502570655
13.65136061498272
13.39243584965714
13.29660465851997
13.04702280704418
12.35077785060123
10.97351486231413
8.646864198017175
5.705039702564553
3.684613311776242
3.19574723912914
3.155166903378635
3.152824157481069
3.152591076650818
3.152453294800639
3.152311327461871
3.152160479001838
3.152000557668147
3.151831541085087
3.151653506821062
3.151466613969913
3.151271441095396
3.151068323064077
3.150857801701981
3.150640548500471
3.150417093517195
3.150192430616014
3.149964292250453
3.149733279691038
3.149501364055121
3.149270318558605
3.149045423446188
3.148840100650317
3.148658663680513
3.14850591299646
3.148392528639156
3.148322294016075
3.14833171216896
3.148405254937359
3.152013067572661
3.560273562793764
11.17940545328912
35.133936529304
1142171.829185334
209410.9735380281
73072.46860229164
35194.54264453775
20431.35367092504
13406.95414449223
9576.391560015667
7239.208325115063
5664.665354095607
4523.628748246699
3666.658703711399
3017.327500228056
2521.963361673206
2138.252039173026
1835.283244707629
1589.516968283692
1386.918202063247
1218.061714369122
1076.217847633807
956.1207303971302
853.7736689855809
766.1836179950234
689.574420193438
621.9878304131344
561.8865711179607
508.1873727480106
460.0737992865514
416.9193194520073
378.2336407768187
343.5576393824923
312.4074985817582
284.3568300048258
259.0360664865572
236.1268393770235
215.3548626540874
196.4840318518608
179.3108195759037
163.6593534724098
149.3771408862722
136.3314636614813
124.4063791034008
113.5001095617176
103.5227287744767
94.3941836892657
86.04268098184207
78.40342436003004
71.41768906000637
65.03212907039033
59.19820816932668
53.87171297325489
49.0122746876414
44.58289970981525
40.54965149401264
36.88139239143383
33.54974643740877
30.52991639934808
27.80011057264463
25.34393428014315
23.14887743566461
21.18987008495094
19.43808366434621
17.88068924565498
16.5124256333385
15.33128846712373
14.33912216047464
13.54290778518126
12.9599311821795
12.61305673066871
12.53461439030461
12.51290724560432
12.18878146841941
11.43766915691942
9.898456141326518
7.363213493402573
4.583524560416341
3.253267109778301
3.061815859802112
3.050027319298912
3.049339514292714
3.049183149777287
3.049041521866466
3.048892325195127
3.048734241851076
3.048567209305501
3.048391297241899
3.048206651511104
3.048013820710937
3.047813156822396
3.047605195792916
3.047390608027313
3.047169926877651
3.046947898006768
3.046722460777821
3.046494241471117
3.046265212092259
3.046037149558556
3.045815152428578
3.045612185692881
3.045433054165353
3.045282152070544
3.045171268649222
3.045101142179814
3.045116294792975
3.045192903463687
3.049949633278588
3.582534211308217
11.7509626367244
34.31401537236532
1142171.062726649
209406.9203171657
73061.72314985468
35175.5813585296
20406.21813868546
13381.90408267621
9560.908996279855
7242.683347841732
5691.67255407057
4571.219705712931
3726.581492369123
3081.092412261357
2584.976934571775
2198.889086819607
1892.882827362095
1644.117834341525
1437.940817879884
1265.118042551517
1119.174154660501
995.9104207440711
889.6274851098107
796.8438716606272
715.0922972538697
642.8454707845677
578.7039837501701
521.5609809047118
470.5537948480622
425.0045479636039
384.3627155554786
348.1227305727801
315.7345887545613
286.7101686546396
260.6292280284263
237.1321018969782
215.9113482300744
196.7038753573742
179.2840014993334
163.4574945402869
149.0565700183072
135.9358069938821
123.9687281574495
113.0448646348428
103.0671839669414
93.94988442727755
85.61659421380593
77.99902045811164
71.03575987967082
64.67140730923964
58.85591819921734
53.54398281023017
48.6945408064238
44.27039503007115
40.23786484622599
36.56647928084868
33.22876972044704
30.20026118496995
27.45980647240931
24.98911599792558
22.77020674069014
20.79777151313045
19.04954987281914
17.49714941725974
16.12663279171111
14.93339089297886
13.91743366970914
13.0846360687378
12.44706908899326
12.02933471242777
11.86377426617871
11.91834251380586
11.8723931964317
11.47502465971009
10.52232315251282
8.6908448436272
5.921313460976373
3.643863771926899
3.011172947563973
2.958814172898978
2.956116082119089
2.955875095131774
2.95573208002117
2.955584345522424
2.955427923374555
2.955262680054374
2.955088677944282
2.954906059899455
2.954715348207979
2.954516909322622
2.95431127515351
2.954099114694252
2.95388096376087
2.953661351376734
2.953438397255318
2.953212747854982
2.952986374218947
2.952761063323262
2.952541753178321
2.952340966678777
2.95216398653841
2.95201468058433
2.951906314728152
2.951835850986794
2.951857369925498
2.951938631867078
2.958244755438204
3.643251084864245
12.27313129158177
33.07159302940076
1142169.988687758
209401.1781095138
73046.36373087448
35147.88780950783
20367.90925133214
13340.1246886265
9527.36356046021