/*--------------------------------*- C++ -*----------------------------------*\
| =========                 |                                                 |
| \\      /  F ield         | OpenFOAM: The Open Source CFD Toolbox           |
|  \\    /   O peration     | Version:  v1812                                 |
|   \\  /    A nd           | Web:      www.OpenFOAM.com                      |
|    \\/     M anipulation  |                                                 |
\*---------------------------------------------------------------------------*/
FoamFile
{
    version     2.0;
    format      ascii;
    class       volScalarField;
    location    "0.00000067";
    object      p;
}
// * * * * * * * * * * * * * * * * * * * * * * * * * * * * * * * * * * * * * //

dimensions      [0 2 -2 0 0 0 0];


internalField   nonuniform List<scalar> 
44064
(
0.06247852667062381
0.0624781961298112
0.0624778609935437
0.06247759451776069
0.06247749293431955
0.06247769214249165
0.06247827379964051
0.06247915557269521
0.06248017222550088
0.06248129286898024
0.06248256597154379
0.06248399365282254
0.06248555880621063
0.06248724484075997
0.06248903776026261
0.06249092482691191
0.06249289420678812
0.06249493504336327
0.06249703744579149
0.06249919236594422
0.06250139141859018
0.06250362666481285
0.0625058903651802
0.0625081747093679
0.06251047153080901
0.06251277201341672
0.06251506639636141
0.06251734368277259
0.06251959135718682
0.06252179511671953
0.06252393862152208
0.06252600327211978
0.06252796802325304
0.06252980924324567
0.0625315006194786
0.06253301308587426
0.06253431469735571
0.06253537029351659
0.06253614069295996
0.06253658110094842
0.06253663854187794
0.06253624871122096
0.06253533402645234
0.0625338069617067
0.06253158517907255
0.06252862521023159
0.06252497626807228
0.06252084016514589
0.06251657623465934
0.06251246771006271
0.06250799197447213
0.06250117214457125
0.06249060539439404
0.0624774120444081
0.06246271703482463
0.06244648888600811
0.06242861830187174
0.06240909086223546
0.06238791640548749
0.06236509376432183
0.06234059099212216
0.06231427459270357
0.06228571319629738
0.06225418542125521
0.06221988119763092
0.06218900502734294
0.0621609776561755
0.0621306709529138
0.06209618885627566
0.06205559572582392
0.06200817239343096
0.0619555127789283
0.06190072353925363
0.06184431837743726
0.06178298863878309
0.06171576636603535
0.0616440902631464
0.06156769744198593
0.06148591460259559
0.06139860206015182
0.06130560417675793
0.06120671066503215
0.06110176449531399
0.06099064718704767
0.06087328363468678
0.06074965453079991
0.06061980757640809
0.0604838663141931
0.06034206798033028
0.06019469062112326
0.06004188146060313
0.05988401400925685
0.05972188993819648
0.05955648162790908
0.05938901063151202
0.05922100039595385
0.05905426190669759
0.05889103856905085
0.05873695454282642
0.05859928369403763
0.05848308898812097
0.05839470718309435
0.0583421518168783
0.05833564356167305
0.05838868796096199
0.05851987387966757
0.05875146973988658
0.05901509331378846
0.05449260309292184
0.05449262696099114
0.05449265376759192
0.05449268063336828
0.05449271065172824
0.05449274880292326
0.05449280200538009
0.05449287820769943
0.05449298127155078
0.05449310715495893
0.05449325548808694
0.05449343264788333
0.05449364261980702
0.0544938879121718
0.05449417086288144
0.05449449394671069
0.05449485979469156
0.05449527125115011
0.05449573146406781
0.05449624397547056
0.05449681280372629
0.05449744250968856
0.05449813822310202
0.05449890554323554
0.05449975015324883
0.05450067733619417
0.05450169309520729
0.0545028054038114
0.05450402354342797
0.05450535756398363
0.05450681829345019
0.05450841739703664
0.05451016739847364
0.054512081692242
0.05451417456110055
0.05451646119810449
0.05451895774390365
0.05452168141128954
0.05452465076384454
0.05452788550499437
0.05453140340595075
0.05453522031781785
0.05453935441508648
0.05454382793553027
0.05454866811817784
0.05455390742760655
0.05455958090915802
0.05456571742593082
0.05457232352494947
0.0545793692585476
0.05458680575443654
0.05459464553910152
0.05460303789931406
0.05461216480410924
0.05462216076913508
0.05463313217902582
0.05464512358441519
0.05465820691336505
0.05467265093178082
0.05468884537984608
0.05470672726035523
0.0547251196795835
0.05474334045192086
0.05476302036003047
0.05478463566895197
0.05480186780822327
0.05481486172248029
0.05482864567398633
0.05484553006150386
0.05486722886561612
0.05489129199745949
0.05491694828533573
0.05494445455194016
0.05497289749154222
0.05500266574143923
0.05503452492163768
0.05506859270118555
0.05510433149916806
0.05514176281730467
0.05518094678964443
0.05522178375577132
0.05526412514619738
0.05530781173196964
0.05535263543877434
0.0553983396123375
0.05544462205881461
0.05549113661154397
0.05553748750059334
0.05558325303512339
0.05562807535736191
0.05567167633455187
0.05571380861928429
0.05575417827646323
0.055792481354189
0.05582853615758267
0.0558623438032471
0.05589420196577011
0.05592383571739937
0.05594960270503549
0.05596900354854039
0.05598080343867496
0.05598490160186052
0.05598063126308147
0.05596625305587941
0.05593789294591901
0.0558899361458834
0.05582019019768887
0.05555134101255
0.05269764423361522
0.05269765517873777
0.05269766755335302
0.05269767995480552
0.05269769365334646
0.0526977107828879
0.052697734031304
0.05269776599370044
0.0526978070192067
0.05269785660164944
0.05269791538402994
0.05269798464763572
0.05269806611050627
0.05269816089892296
0.05269826988389748
0.05269839392586319
0.05269853395293515
0.05269869101305527
0.0526988663385684
0.05269906140420047
0.05269927794231433
0.0526995178110098
0.05269978233348611
0.05270007044162645
0.05270037688351989
0.05270069880930253
0.05270104240429781
0.05270141610661644
0.05270182486482009
0.05270227221160708
0.05270276224026052
0.0527032997222557
0.05270389001052304
0.05270453906948227
0.05270525353599981
0.05270604078895477
0.05270690926251217
0.05270786919523018
0.05270893128993359
0.05271009434063424
0.05271134444145441
0.0527126805983999
0.05271411942150099
0.0527156796010486
0.05271737791430348
0.05271923009269819
0.05272125114750392
0.0527234507869109
0.05272582344487686
0.05272835060940893
0.05273100942706695
0.05273377041176639
0.05273658971752255
0.05273939622387151
0.05274208991345
0.05274457838346145
0.0527468580370628
0.05274902440844446
0.05275115855772154
0.05275323753558897
0.05275512671077877
0.05275668661942585
0.05275802601104507
0.05275946914439324
0.05276109719966109
0.05276190736370354
0.05276115022851824
0.05275972243323296
0.05275856950048566
0.05275832998856956
0.05276092359350045
0.05276478424362498
0.0527657309513795
0.0527651989707775
0.05276651544150053
0.05276913769480129
0.05277164941087491
0.05277444406376192
0.05277787888055285
0.05278205294804426
0.05278705107878876
0.05279303208201638
0.05280017872499879
0.05280867987542155
0.05281874463925311
0.05283060041698816
0.05284449130328489
0.05286066837211069
0.0528793588296153
0.05290083235678077
0.05292544438425307
0.05295340679943238
0.05298471058972121
0.05301925306445709
0.05305681145165903
0.05309692782684419
0.05313915300033659
0.05318283474271097
0.05322629589176206
0.05326756252171908
0.05330557145450809
0.05333917133724603
0.05336670734858833
0.05338675529004776
0.05339749187449857
0.05340161498665014
0.05345885737048398
0.05283939436439449
0.05148351904472291
0.05148352737590321
0.05148353681769857
0.05148354626360427
0.05148355646528201
0.05148356856206979
0.05148358392091148
0.05148360405889364
0.05148362987723362
0.05148366188798658
0.05148369951546944
0.05148374264888519
0.05148379285561497
0.05148385104539049
0.05148391773776601
0.05148399342119789
0.05148407865683281
0.05148417411135049
0.05148428059461654
0.05148439908134808
0.05148453063582534
0.05148467595664576
0.05148483401570295
0.05148500061361565
0.05148517282631813
0.05148535569014
0.05148555587969059
0.05148577559553167
0.05148601620491203
0.051486279500144
0.05148656758369161
0.05148688274405548
0.05148722745772034
0.05148760441588496
0.05148801654703324
0.05148846704425711
0.05148895939455739
0.05148949734109394
0.05149008471485875
0.05149072587006599
0.05149142946953288
0.05149220914135157
0.05149307963531048
0.0514940563531152
0.05149515662322746
0.0514964003290982
0.05149780073161296
0.05149934423525723
0.05150100742575246
0.0515028033858974
0.05150477308153204
0.05150694367912894
0.05150932087614289
0.05151190654226355
0.05151470926175723
0.05151774320266884
0.05152101732761231
0.05152451080873482
0.05152815079673334
0.05153180524557512
0.05153530299205122
0.0515385166968194
0.05154148080832326
0.05154430729547498
0.05154697697353677
0.05154943934105371
0.05155191614395896
0.05155458442120239
0.05155678929999259
0.05155813732216297
0.05155983951031853
0.05156235864510395
0.05156552016829184
0.05156870345616837
0.05157129848730663
0.05157387904237049
0.05157679730957845
0.05157982973718007
0.05158304827207377
0.05158639087442524
0.05158982265056554
0.05159335220717103
0.05159696932754791
0.05160065574189743
0.05160439942843757
0.05160818874131674
0.05161201458969308
0.051615877252812
0.05161975560141868
0.0516236243854122
0.05162753272241617
0.05163153852491478
0.05163568268655257
0.05164008101855522
0.05164489194402822
0.05165019014246345
0.05165616712255708
0.05166319137632123
0.05167116206015418
0.05168006926998471
0.05169054931386462
0.05170288930071444
0.05171715407153491
0.05173391068881934
0.05174948453046054
0.05175279486864121
0.05198972409394228
0.05092660985952862
0.05018953088903497
0.05018953735574329
0.05018954468072014
0.05018955199668379
0.05018955989531979
0.05018956933223937
0.05018958147654944
0.05018959756030218
0.05018961845390543
0.05018964453622853
0.05018967488788331
0.0501897093130612
0.05018974928037302
0.05018979558130042
0.05018984861544196
0.05018990874243085
0.05018997636989037
0.05019005197014898
0.05019013610407478
0.05019022943737697
0.0501903326880635
0.05019044628025184
0.05019056928782561
0.05019069841138513
0.05019083239484196
0.05019097561126909
0.05019113225429148
0.05019130364264947
0.05019149078551694
0.05019169499170763
0.05019191775536071
0.05019216068422077
0.05019242550394738
0.05019271407208534
0.05019302838670479
0.05019337059296615
0.05019374298941283
0.05019414803352886
0.05019458834552203
0.05019506671087823
0.05019558608490473
0.05019614960073743
0.05019676058951054
0.0501974226191998
0.05019813945999973
0.05019891471592399
0.05019975170243422
0.05020065843785348
0.05020165917163586
0.05020278857271729
0.05020405911008326
0.05020545365003973
0.05020697151092958
0.05020865103154411
0.05021052695357506
0.05021260348738574
0.05021487392548182
0.05021733570486831
0.05021998734072132
0.05022282435918465
0.05022583689369054
0.05022900138758021
0.05023225082629364
0.05023543612539243
0.05023837690788776
0.05024100367507162
0.05024340609458492
0.05024567679021653
0.05024784603478705
0.05025005068946555
0.05025210056799901
0.05025394640165913
0.05025621547062459
0.05025893779159048
0.05026205084847841
0.05026471835038353
0.05026736203102324
0.05027070955915401
0.05027428546499159
0.05027811985146569
0.05028225293563118
0.05028670633596544
0.05029148294644162
0.05029658368834456
0.05030201133239112
0.05030776030743542
0.05031381635235317
0.05032016833053702
0.05032679027003815
0.05033363256460277
0.05034066548497922
0.05034784208536783
0.05035509203318708
0.05036237715589827
0.05036969056837078
0.05037696642309007
0.05038418373139797
0.05039154667200066
0.05039904118235966
0.0504065855362582
0.05041440697578983
0.0504223493742575
0.05043011218799688
0.05043980915040669
0.05045028616095783
0.05038184797054056
0.05080054911681028
0.04941445325419938
0.04891741882597041
0.04891742468712636
0.04891743132561691
0.04891743793881011
0.0489174449984723
0.04891745322509215
0.04891746345958523
0.04891747663261511
0.04891749360603108
0.04891751454095293
0.04891753855362901
0.04891756567540798
0.04891759703141716
0.04891763318882433
0.04891767442527802
0.04891772099795147
0.04891777320699901
0.04891783140995516
0.0489178960418549
0.04891796762160145
0.04891804666443121
0.04891813326680065
0.04891822616751107
0.04891832270468387
0.04891842268041805
0.04891852986276284
0.04891864720677134
0.04891877558331212
0.04891891579564323
0.04891906890088185
0.04891923610155564
0.04891941870262013
0.04891961812235105
0.04891983590727679
0.04892007374345377
0.04892033346736412
0.0489206170777618
0.04892092674846148
0.0489212648420517
0.04892163392454808
0.04892203678019579
0.04892247642536336
0.04892295612062211
0.04892347937993718
0.04892404997604467
0.04892467194481866
0.0489253496037764
0.04892608756403185
0.04892689045982974
0.04892776211388128
0.04892870722206877
0.04892974708425767
0.04893092478870469
0.04893226925134021
0.04893377617079542
0.04893544977724296
0.04893730839855148
0.04893935404983091
0.04894158241783956
0.04894399293818952
0.04894658658687713
0.04894936144598541
0.04895230859090229
0.04895540795021615
0.04895861940632237
0.04896185580347012
0.04896494717172453
0.04896769880517268
0.04897008253209782
0.04897225357037856
0.04897434731610124
0.04897638627223661
0.04897841992194436
0.04898060666163811
0.0489832056206403
0.04898622344583471
0.04898895590647868
0.04899159078751134
0.04899458249597891
0.04899786572576812
0.04900143493501861
0.04900531798102034
0.04900953560975021
0.04901411578685465
0.0490190885580018
0.04902448417941613
0.04903033089243337
0.04903666282875957
0.04904351229600951
0.04905089632115302
0.04905884193689933
0.04906735882669871
0.0490764333908915
0.04908604370628857
0.04909616532283165
0.04910670680042317
0.04911750927890398
0.04912851390688665
0.04913949158767642
0.04915018867367537
0.04916056699149729
0.04917033152919276
0.04917820140777018
0.04918646184253524
0.04921728766817687
0.04906186497717813
0.0496458846750259
0.04805513634776942
0.04782012014048589
0.04782012540726247
0.04782013137153922
0.04782013730494739
0.04782014361440121
0.04782015092638793
0.047820159972388
0.0478201715151282
0.04782018611541076
0.04782020337759559
0.04782022313045035
0.04782024600728588
0.04782027240099376
0.04782030270729887
0.04782033720105495
0.0478203761193873
0.04782041971601289
0.04782046828791261
0.04782052219508231
0.04782058186746609
0.04782064774116306
0.04782071993359548
0.04782079746668132
0.0478208781077481
0.04782096156785114
0.04782105096642609
0.04782114881810772
0.0478212558493807
0.04782137271646107
0.04782150028766129
0.04782163955212379
0.04782179158217158
0.04782195754183532
0.04782213869907517
0.0478223364349436
0.04782255225240237
0.04782278778594935
0.047823044811986
0.0478233252597756
0.04782363122292306
0.04782396497106533
0.04782432896120413
0.04782472584815634
0.04782515849377424
0.04782562997464288
0.04782614358772808
0.04782670285310642
0.04782731151216779
0.04782797352047959
0.04782869303627407
0.04782947434686822
0.0478303214755382
0.04783123751877036
0.04783222751231141
0.04783331472927624
0.04783452771067908
0.04783587890746396
0.04783739844693504
0.04783910794492684
0.04784099261357319
0.04784304011888347
0.04784524595547365
0.04784760758337786
0.04785011771411264
0.04785275739273525
0.04785548897654268
0.04785824986425733
0.04786094740756429
0.04786345950756515
0.04786567405184749
0.04786759475792995
0.0478692780329258
0.04787089486730943
0.04787266082686151
0.04787454885731628
0.04787661454812064
0.04787884646380589
0.0478812347588932
0.04788380151427706
0.04788642437784826
0.04788923991979608
0.04789227301258438
0.04789553941191712
0.04789906004414246
0.04790285727301865
0.04790694878231056
0.04791134956881721
0.0479160775329337
0.04792115141732393
0.04792657947215623
0.04793237859805385
0.04793855579148158
0.0479451092684481
0.04795202685610114
0.04795929798722021
0.0479668880843157
0.04797469572836804
0.0479826870593169
0.04799070272579391
0.047998526939298
0.04800605389215887
0.04801335908082358
0.04801843833444348
0.04801606306041248
0.04808041354424894
0.04782823150017498
0.04851680948708605
0.04690957385157248
0.04683084061049001
0.04683084550083261
0.04683085103860742
0.04683085653920924
0.04683086234957615
0.04683086898453926
0.04683087702120062
0.04683088704406992
0.04683089948528916
0.04683091409351336
0.04683093096874628
0.04683095045299503
0.04683097257618113
0.04683099778464577
0.04683102636220146
0.04683105849799647
0.04683109438490914
0.04683113425673231
0.04683117840380088
0.04683122717533299
0.04683128090711929
0.04683133958977512
0.04683140218147421
0.04683146683472551
0.04683153368363263
0.04683160539809031
0.04683168388727795
0.04683176972927617
0.04683186348434227
0.04683196588850951
0.04683207778070914
0.04683220007743588
0.04683233378236051
0.04683247999841766
0.04683263993788273
0.04683281493269973
0.04683300644592872
0.04683321608428855
0.0468334456118036
0.04683369696462115
0.04683397226679848
0.04683427384661668
0.04683460425306851
0.04683496627234274
0.04683536294406097
0.0468357975768149
0.04683627376248202
0.04683679538852539
0.04683736664660157
0.04683799203780331
0.04683867638634811
0.04683942487432932
0.04684024298086694
0.04684113581639356
0.04684210699136489
0.04684316336294914
0.04684434139801115
0.04684568327770756
0.04684720368517593
0.04684890727399695
0.0468507879197749
0.04685283659314311
0.0468550495511539
0.04685742593815014
0.04685996240642008
0.04686264692005474
0.0468654529544256
0.04686833539231278
0.04687122584737231
0.04687402249660038
0.04687659221209999
0.04687884247230913
0.04688081594041203
0.04688280074650734
0.04688512074667699
0.04688765776440992
0.04689014767829452
0.04689189520239874
0.04689378055446825
0.04689651175686819
0.04689946282629964
0.04690260420079481
0.04690596398306406
0.04690955000073633
0.04691336253489947
0.0469174057074749
0.04692168141195234
0.04692618950550837
0.04693092864707023
0.0469358861572363
0.04694105211675106
0.04694640405457535
0.04695191354252533
0.04695753620628153
0.04696322057109746
0.04696890393388315
0.04697445710178857
0.04697979765909815
0.0469847501668537
0.04698906886704079
0.04699239141301585
0.04699518296443144
0.04699716026222248
0.0469729104510307
0.04707542691264983
0.04673920196996793
0.04742495018533832
0.04600114488200253
0.04594376061191355
0.04594376506187543
0.04594377010043132
0.04594377510073729
0.04594378036961244
0.04594378636676821
0.04594379361359578
0.0459438026208083
0.04594381374242903
0.0459438268232009
0.04594384200608529
0.04594385938842568
0.04594387888381956
0.04594390098611418
0.0459439259792916
0.04594395402079682
0.04594398526451435
0.0459440199002505
0.04594405816588628
0.04594410035044685
0.04594414673860524
0.04594419734157273
0.04594425131531697
0.04594430707223008
0.04594436460929218
0.0459444262027375
0.04594449358029524
0.04594456724934495
0.04594464768675587
0.04594473552484163
0.04594483148713392
0.04594493636459297
0.04594505102369289
0.04594517641685297
0.04594531359128827
0.04594546369788515
0.04594562800106342
0.04594580788962696
0.04594600488858195
0.04594622067190374
0.04594645707603594
0.04594671611374707
0.04594699998798488
0.04594731110543691
0.045947652089644
0.04594802579334278
0.04594843530950761
0.0459488839801642
0.04594937540174034
0.04594991342512057
0.04595050214792765
0.04595114589752285
0.04595184921295665
0.04595261683868676
0.04595345363561484
0.04595436401265103
0.04595535086668105
0.04595641858227383
0.04595759392071568
0.04595892099274577
0.04596042705596468
0.04596211013450165
0.04596395409358307
0.04596594939895163
0.04596809173474266
0.04597037626543531
0.04597279127952682
0.04597531099213458
0.04597788889664568
0.04598045565221293
0.04598292462860805
0.04598519951547603
0.04598718190940081
0.04598890036935585
0.04599072620616285
0.04599282137946915
0.04599506144004496
0.04599747963297753
0.04600008928581643
0.04600267724841114
0.04600512123843491
0.04600777118093449
0.04601062908744331
0.04601368935459209
0.04601696678272815
0.04602047090529408
0.04602420620054958
0.04602817428163666
0.0460323755865924
0.04603679984129468
0.04604143734263942
0.04604626378408162
0.04605124894499435
0.04605634357676709
0.04606148245161
0.04606659373805518
0.04607153329886497
0.0460761789162193
0.04608032721593903
0.04608374280947038
0.04608570579463397
0.04608628702391699
0.04609215915793494
0.04604337213661049
0.04618730461680359
0.04581318041813174
0.04644800439672763
0.04496588275191166
0.04511879528756344
0.04511879942183363
0.04511880410272764
0.04511880874346282
0.04511881361309836
0.04511881910451229
0.04511882564981268
0.04511883365841799
0.04511884341917691
0.04511885490660915
0.04511886835165058
0.04511888362586393
0.0451189005055169
0.04511891952628011
0.04511894097360702
0.04511896497777507
0.04511899166111863
0.0451190211805198
0.04511905373630426
0.04511908957314951
0.04511912892399875
0.04511917175135879
0.04511921723084408
0.045119264017394
0.04511931228160032
0.04511936400208526
0.04511942057956294
0.04511948244051773
0.04511955000391945
0.04511962382229361
0.04511970452853113
0.04511979281840296
0.04511988945892569
0.04511999529874111
0.04512011127725323
0.04512023843419855
0.04512037792034735
0.04512053100936421
0.04512069911083674
0.04512088378444946
0.04512108675525879
0.04512130992968377
0.04512155541215299
0.04512182552217717
0.04512212281190054
0.04512245008362947
0.04512281040672148
0.04512320713322859
0.04512364391145497
0.04512412469629483
0.04512465375485059
0.0451252356646874
0.04512587530214499
0.04512657783060021
0.04512734871755293
0.04512819369675689
0.04512911812199608
0.04513012554314082
0.04513122157507687
0.04513243992173246
0.04513383346291941
0.04513541137459831
0.04513715142035134
0.04513904438551333
0.04514108833710824
0.04514328276406318
0.04514562408819626
0.04514809997831561
0.04515068312271809
0.04515332863472424
0.04515598103411451
0.04515858366316713
0.04516104851115255
0.04516319359471554
0.0451649768066872
0.04516708052010406
0.04516962049462633
0.0451720832005504
0.04517375547712957
0.04517554400898571
0.04517818171054375
0.04518102929860157
0.04518404671408456
0.04518725902698509
0.04519067750887396
0.04519430567116677
0.04519814695402413
0.04520220301332848
0.04520647531309934
0.04521095681492411
0.04521564215422071
0.04522051340556034
0.04522555095644785
0.0452307207823263
0.04523597281630451
0.04524125783129207
0.04524646738170923
0.04525150751161845
0.0452562010845456
0.0452605085709981
0.04526372303421457
0.04526376546270036
0.04528141040259309
0.04521181994067051
0.0453916250603011
0.04501843132363461
0.04566831334753772
0.04374633350802815
0.04436962526380255
0.044369629006993
0.0443696332448355
0.04436963744385843
0.04436964184259844
0.04436964679225607
0.04436965268721819
0.04436965990393162
0.04436966870903583
0.04436967914558314
0.04436969142640102
0.0443697052781048
0.04436972044948823
0.04436973749620179
0.04436975669816391
0.04436977816926594
0.04436980201355404
0.0443698283663744
0.04436985740054254
0.04436988932756335
0.04436992435398926
0.04436996247143211
0.04437000302266092
0.04437004487106811
0.044370088068285
0.04437013429460095
0.04437018484132309
0.0443702400975511
0.04437030043267808
0.04437036633533907
0.0443704383668147
0.04437051714420265
0.04437060334749673
0.04437069772878753
0.04437080112024768
0.04437091444218693
0.04437103871218441
0.04437117505549563
0.04437132471618711
0.04437148906917411
0.04437166963310213
0.04437186808379815
0.0443720862682308
0.04437232621901843
0.04437259016929238
0.0443728805676698
0.04437320009294068
0.04437355166778793
0.04437393847091583
0.04437436394671544
0.04437483180994206
0.04437534603960754
0.04437591086778794
0.04437653075685169
0.04437721036545948
0.04437795452330141
0.0443787681860982
0.04437965603323803
0.04438062126575651
0.04438166685492095
0.04438281165881374
0.0443841037429729
0.04438556690841942
0.04438718374263133
0.04438894184586737
0.04439083596129847
0.04439286302354582
0.04439501734470333
0.04439728520593226
0.04439963956008713
0.0444020386431604
0.04440443115755652
0.04440675021366461
0.04440885519669914
0.04441060927180228
0.04441232061107844
0.04441441431767159
0.04441674757913353
0.044418990968288
0.04442137029386289
0.044423747128569
0.04442608261381376
0.04442858365332751
0.04443130339906637
0.04443424271039389
0.04443741073211179
0.04444081981829309
0.04444447892361098
0.0444483972445264
0.04445257703171387
0.04445702339357612
0.04446173032986669
0.04446669204762303
0.04447189283206842
0.04447730266599021
0.04448290036581309
0.04448861617792991
0.04449440448409009
0.04450010067391615
0.04450584649107625
0.04451167323988798
0.04451029634249698
0.04454315568383725
0.04445643051851909
0.04466047099194911
0.04428705480399107
0.04505187944709696
0.04249362157899778
0.04366018025747045
0.04366018362848798
0.04366018744478541
0.04366019122383279
0.04366019517384052
0.04366019960040535
0.04366020485267422
0.04366021128216734
0.04366021917858041
0.04366022870185519
0.04366024002773945
0.04366025272401782
0.04366026653150738
0.04366028201633458
0.0436602994411968
0.04366031889582331
0.04366034046124027
0.04366036424933829
0.04366039040665194
0.04366041911449357
0.04366045054755335
0.04366048468043065
0.04366052090641397
0.04366055826165291
0.04366059686902311
0.04366063821387935
0.0436606834165838
0.04366073282730319
0.04366078678448508
0.04366084573184605
0.04366091017823662
0.04366098068385818
0.04366105786701251
0.0436611424126099
0.04366123507961585
0.04366133670939728
0.0436614482354604
0.04366157069349436
0.04366170523223824
0.04366185312560594
0.04366201578575469
0.04366219477687798
0.04366239182976195
0.04366260885713701
0.04366284796976611
0.04366311149316238
0.0436634019846597
0.04366372225043862
0.04366407536190264
0.04366446466961284
0.04366489381183557
0.04366536672868949
0.04366588767087688
0.04366646119294196
0.04366709213537401
0.04366778560621594
0.04366854698700116
0.04366938186781073
0.04367029533035308
0.04367129051753399
0.04367237332353333
0.04367358073715782
0.04367495118929252
0.0436764829799372
0.04367816469624336
0.04367998901782381
0.04368195178761362
0.04368404904793512
0.04368627302890206
0.04368860649208597
0.04369101791002328
0.04369346569671072
0.04369591473273284
0.04369831506907697
0.04370045757474204
0.04370216999749396
0.04370426314867591
0.04370683369954797
0.04370897000358073
0.04371097608734582
0.04371323991635823
0.04371578069718574
0.04371858455105416
0.04372158918876855
0.04372479186731015
0.04372821375969479
0.04373186807332294
0.04373576524776342
0.04373991898393002
0.0437443385286263
0.04374903815651288
0.04375402442018242
0.04375930782341998
0.0437648949939449
0.04377078211051796
0.0437769788822889
0.04378346069493291
0.04379025374482653
0.04379719303421581
0.04380437812678678
0.0438138584939648
0.04380979862880212
0.04385851198680729
0.04375991845811027
0.04398498860086313
0.04358823826569191
0.0445458920706049
0.04121658187583765
0.0430031985090254
0.04300320150121205
0.04300320488852077
0.04300320824171839
0.04300321174424993
0.04300321566913595
0.04300322033906287
0.04300322609505205
0.04300323324046829
0.04300324198823063
0.04300325247084565
0.04300326420329345
0.04300327696059084
0.04300329129793745
0.0430033074665826
0.04300332555075474
0.04300334562676614
0.04300336779911314
0.04300339220295042
0.04300341900493726
0.04300344837076714
0.0430034803041639
0.04300351431204986
0.04300354953510405
0.04300358600377234
0.0430036250432857
0.04300366772274125
0.04300371437492141
0.04300376531223405
0.04300382094386074
0.04300388173900207
0.04300394821312378
0.04300402093372744
0.0430041005280163
0.04300418768993314
0.04300428318760523
0.04300438787096798
0.04300450268023858
0.04300462865579455
0.04300476694860313
0.04300491883124369
0.04300508570955099
0.04300526913480482
0.04300547081651646
0.04300569263588684
0.04300593665971348
0.0430062051545313
0.04300650060048342
0.04300682570399463
0.04300718340930756
0.04300757691212655
0.04300800966932053
0.04300848539411417
0.04300900804864993
0.04300958182732692
0.04301021112104966
0.04301090047128568
0.043011654567965
0.04301247826401934
0.04301337584303094
0.04301434791913442
0.04301539130183945
0.04301654804572243
0.0430178574497729
0.04301930672008472
0.04302089087163768
0.04302260781014733
0.04302445392664152
0.04302642263187993
0.04302850236678285
0.04303067365786762
0.0430329077439589
0.04303516849417892
0.04303740011164379
0.04303945587278521
0.04304119035107592
0.04304295465268552
0.04304517592628311
0.04304737551386786
0.04304854569198003
0.04305003194535759
0.04305236578901837
0.04305476329738663
0.04305732922351402
0.04306013286060928
0.04306319288690515
0.04306652387878657
0.04307014378054976
0.04307407413111763
0.04307833221408832
0.043082941309349
0.0430879186017169
0.04309328597995146
0.04309906507006811
0.04310527021311347
0.04311193489217423
0.04311905650749686
0.04312673225243965
0.04313485830005909
0.04314298588909701
0.04315677771536937
0.04314894117777155
0.04321227150213269
0.04310405239946485
0.04335510037946438
0.04290745369614287
0.04410116344620104
0.04000514231729273
0.0423647283913664
0.04236473132815741
0.04236473465268999
0.04236473794207359
0.04236474136956982
0.042364745185212
0.04236474966905622
0.04236475509458537
0.04236476168212798
0.04236476957867085
0.04236477879096677
0.04236478899306816
0.04236480015654168
0.04236481268909376
0.04236482677657343
0.04236484249810896
0.04236485993470819
0.04236487919389813
0.04236490041403686
0.04236492376643707
0.0423649494228303
0.04236497739079389
0.04236500716599524
0.04236503785512986
0.04236506952443842
0.04236510348405968
0.04236514069377878
0.04236518145045409
0.04236522604385567
0.04236527485596848
0.04236532832591484
0.04236538693832224
0.04236545122945541
0.04236552179490653
0.04236559929649725
0.04236568446931265
0.04236577812974472
0.04236588118474132
0.04236599464169929
0.04236611961915282
0.04236625735824599
0.04236640923500359
0.04236657677341839
0.04236676165952805
0.04236696575653991
0.04236719112091017
0.04236744001921592
0.04236771494561144
0.04236801863958378
0.04236835410357093
0.04236872461828645
0.04236913375040786
0.04236958536059687
0.04237008360605467
0.04237063293180308
0.04237123804869788
0.0423719038990162
0.04237263561803257
0.04237343845845334
0.04237431745646324
0.04237527673561037