/*--------------------------------*- C++ -*----------------------------------*\
| =========                 |                                                 |
| \\      /  F ield         | OpenFOAM: The Open Source CFD Toolbox           |
|  \\    /   O peration     | Version:  v1812                                 |
|   \\  /    A nd           | Web:      www.OpenFOAM.com                      |
|    \\/     M anipulation  |                                                 |
\*---------------------------------------------------------------------------*/
FoamFile
{
    version     2.0;
    format      ascii;
    class       volScalarField;
    location    "0.00000067";
    object      p;
}
// * * * * * * * * * * * * * * * * * * * * * * * * * * * * * * * * * * * * * //

dimensions      [0 2 -2 0 0 0 0];


internalField   nonuniform List<scalar> 
44064
(
0.05702894426210191
0.05702873200902163
0.0570285134863989
0.05702831339650193
0.05702815026145961
0.05702806823871059
0.05702812873955988
0.05702839140355011
0.05702887069324002
0.05702949295492507
0.05703016945982253
0.05703089715000266
0.0570316989446624
0.05703256296040987
0.05703346673657284
0.05703439023045592
0.05703531751914208
0.0570362360612276
0.05703713607159832
0.05703800938495264
0.05703884884896351
0.05703964810600169
0.05704040069065475
0.05704109919676646
0.05704173459347171
0.05704229590031792
0.05704277014725034
0.05704314271372627
0.05704339795445573
0.05704351989375198
0.05704349331619703
0.05704330487529152
0.05704294375186317
0.05704239969130089
0.05704165275167087
0.05704065342326747
0.0570393297891937
0.05703764259796489
0.0570355955441937
0.05703318194786725
0.05703037370992822
0.05702714009842284
0.05702344929816133
0.05701926190968519
0.05701452996391593
0.05700921397696979
0.05700329059575038
0.05699673965331382
0.05698955619890908
0.05698173828142215
0.05697325308562899
0.05696405128813945
0.05695408293221374
0.05694328413924919
0.05693153390402787
0.05691869895786086
0.0569053775392515
0.05689318891574207
0.05688166477221177
0.05686917759497062
0.05685476692668517
0.05683784628163015
0.05681877878575266
0.05679806698557872
0.05677587716077712
0.0567519636805647
0.05672597326768027
0.05669784153439637
0.05666753205021058
0.05663484551567592
0.05659957966491629
0.0565615964476207
0.05652074201507815
0.05647683337073119
0.05642969524216533
0.05637915746428614
0.05632505038007859
0.05626720973882263
0.05620548014170877
0.05613971855852237
0.05606979863589913
0.05599561566031717
0.05591709218686285
0.05583418442651889
0.05574688936994276
0.05565525279498185
0.05555938132938415
0.05545945050431201
0.05535571201669372
0.05524850646550111
0.05513833381022362
0.05502551269041518
0.0549104083372793
0.05479392795561903
0.05467716899604227
0.05456139676331434
0.05444862604070101
0.0543430359000826
0.05424935285863033
0.05417124838518219
0.05411327783795648
0.05408113399342254
0.05408198972902267
0.05412507656502411
0.05422276349549062
0.05439350587872857
0.05465804936576591
0.05491467689947012
0.05058928660370559
0.05058931884826727
0.05058935489934274
0.05058938976749854
0.05058942454582298
0.05058945997463848
0.05058949623617618
0.0505895339423202
0.05058957495941406
0.0505896233326277
0.0505896847274238
0.05058976260259553
0.05058985619138007
0.05058996263164624
0.05059008110704886
0.05059021497976454
0.05059036833579294
0.05059054331176539
0.05059073928662632
0.05059095502321086
0.05059119378702703
0.05059146117010434
0.05059176020193246
0.0505920908087816
0.05059245178470518
0.05059284325017827
0.0505932681037586
0.05059373246955023
0.05059424304387097
0.05059480579806868
0.05059542726005369
0.05059611473929661
0.05059687625168111
0.05059772031336361
0.05059865513042814
0.05059968850056668
0.05060082935470544
0.05060208972412464
0.05060348528857146
0.05060503292319355
0.05060674952128354
0.05060865543945488
0.05061077740339197
0.05061314787157457
0.05061580510958459
0.05061879627773025
0.05062218185322064
0.05062603326253743
0.05063039609038703
0.05063529023552817
0.05064076405509156
0.05064689232243146
0.05065374597103932
0.05066139890157868
0.05066997091585264
0.05067954421153616
0.05068934526478048
0.0506976565184717
0.05070497172247754
0.05071224144070251
0.05072013220003003
0.05072992932644884
0.05074173262259747
0.0507550201859102
0.0507693811316801
0.05078474156639049
0.05080125548990134
0.05081908884976393
0.0508383014712929
0.05085892493121297
0.05088104788145949
0.05090476041745716
0.05093012641287987
0.05095720479853168
0.05098605617486734
0.05101672990457209
0.05104926081529811
0.05108366924169577
0.05111995747340701
0.05115810611736721
0.05119807078449722
0.05123977873061956
0.05128312566997226
0.05132797308031635
0.05137414633295288
0.05142143296755488
0.05146958393914576
0.05151831702775641
0.05156732347882714
0.0516162551751197
0.05166484687489856
0.05171287478858336
0.05176018628581016
0.05180672205668619
0.05185242083012305
0.05189730458671959
0.05194086475977024
0.05198168133805258
0.05201800532092059
0.05204897251248067
0.05207432395179691
0.05209347999600002
0.05210533018062754
0.05210765680613172
0.05209487787876971
0.05205871972032688
0.05202357152093887
0.05188565177981057
0.04945140801022633
0.04945141042122229
0.04945141314008242
0.04945141579834545
0.0494514184948484
0.04945142137792475
0.04945142469609763
0.0494514289566752
0.04945143507599375
0.04945144442290628
0.04945145869482894
0.04945147964488007
0.049451508441196
0.04945154488342971
0.04945158913008206
0.04945164298721774
0.04945170827716794
0.04945178630238804
0.0494518783212072
0.04945198600233287
0.04945211088899971
0.04945225311744297
0.04945241136018186
0.04945258511685727
0.04945277573672043
0.04945298386970226
0.04945320924708346
0.04945345229409279
0.04945371390647195
0.04945399482430234
0.04945429536454688
0.04945461553719791
0.04945495497139157
0.04945531277290712
0.04945568739705754
0.04945607667260673
0.0494564777926771
0.0494568873072032
0.0494573009348122
0.04945771342949312
0.04945811955305133
0.04945851460217086
0.04945889246383668
0.04945924427647203
0.04945955890165091
0.04945982556839006
0.04946003782813933
0.04946019318577319
0.0494602899170424
0.04946033027515941
0.04946032181869568
0.04946027217647361
0.0494601889475477
0.04946007705908013
0.04945993801387426
0.04945978248075361
0.04945957479698349
0.04945912068270402
0.04945850090182564
0.04945855340559613
0.04945969589454632
0.0494611502872527
0.04946219826828638
0.04946279946871426
0.04946323220773044
0.04946387908945986
0.04946481603582681
0.04946582380010205
0.04946685615161004
0.04946802019098077
0.04946937527799714
0.04947090397554446
0.04947262985286432
0.04947460445991725
0.04947687710105654
0.04947949976930215
0.04948253445143964
0.04948605447539484
0.04949014448582011
0.04949490174065442
0.04950043746572471
0.04950687782155283
0.04951436459084778
0.04952305540461507
0.04953312372325271
0.0495447568532769
0.0495581503209974
0.04957350577177497
0.04959103909912545
0.04961092692105019
0.04963332509122155
0.04965856814475733
0.04968691254488646
0.04971825513388112
0.04975231914020124
0.04978886055695155
0.04982731858899012
0.04986646351224673
0.04990502128820745
0.04994213352231058
0.0499766709457574
0.05000706669408291
0.05003172056817059
0.05004966205622281
0.0500598113432901
0.05005051505460674
0.05007462249715936
0.04994425922994919
0.04859496801153471
0.04859496341845248
0.04859495822137285
0.04859495311204441
0.04859494792252803
0.04859494246833677
0.04859493657070138
0.0485949300115172
0.04859492265233586
0.04859491465533566
0.04859490661092516
0.04859489954343939
0.04859489480188683
0.04859489334054239
0.04859489569969744
0.04859490281331315
0.04859491595039284
0.04859493648955586
0.04859496582271019
0.04859500536668448
0.04859505669213218
0.04859512149137841
0.04859520101658149
0.04859529675287613
0.0485954104639952
0.04859554364481654
0.04859569849872927
0.04859587757568081
0.04859608326742439
0.04859631781600437
0.04859658338715482
0.04859688204187762
0.04859721568934081
0.0485975862000971
0.0485979961512825
0.0485984487498777
0.04859894712708699
0.04859949466650146
0.04860009539213084
0.04860075400363044
0.04860147572867415
0.04860226602948255
0.04860312958245219
0.04860406512045262
0.04860506375909751
0.04860612578353919
0.04860726596737282
0.0486084881356179
0.04860976821064822
0.04861108283438
0.04861243172720465
0.04861381356132431
0.04861522179552561
0.04861666759705167
0.04861818817441677
0.04861980429541847
0.04862146318727802
0.04862309954569063
0.04862464003778495
0.04862612172243813
0.04862760123697515
0.04862906155545039
0.04863043543658537
0.04863188241008057
0.04863351797963197
0.04863518792750077
0.04863694257957803
0.04863887782738908
0.04864096791249532
0.04864320721356166
0.04864560990948722
0.04864817763868794
0.04865091620575283
0.04865383449140787
0.04865693467023578
0.0486602179507759
0.04866368627089596
0.04866734035113811
0.04867117906662315
0.04867519990611677
0.04867939905663836
0.04868377139178437
0.04868831064631185
0.04869300952144561
0.04869786020998052
0.04870285521188066
0.04870798788652078
0.04871325004527867
0.04871864826147126
0.04872417511691047
0.0487297677845545
0.04873545606973718
0.04874132686569213
0.04874737493288315
0.04875362897119521
0.0487602697860323
0.04876749567761331
0.04877522522184054
0.04878350789688254
0.04879274964094271
0.04880317795170905
0.04881491022921072
0.04882792986290797
0.04884255130719983
0.04886176641339585
0.04886373824833466
0.04892956191323894
0.04880700775209555
0.04765560126650818
0.04765559328175779
0.04765558424612887
0.04765557535612842
0.04765556629582357
0.04765555667656758
0.0476555460159919
0.0476555335227019
0.0476555180795813
0.04765549848677688
0.0476554739192552
0.04765544463052793
0.04765541170049374
0.04765537638420701
0.04765533873281806
0.04765529798227633
0.04765525435321796
0.04765520850280687
0.04765516117880277
0.04765511317923569
0.04765506548337452
0.04765501984136984
0.04765497979775422
0.04765494711563149
0.04765492091686337
0.04765490260851378
0.0476548954237101
0.04765490288494061
0.04765492891086135
0.04765497806704715
0.0476550557376956
0.04765516825106623
0.04765532302191174
0.04765552854604391
0.04765579368963114
0.04765612786102853
0.04765654244919671
0.04765705112101565
0.04765766434601565
0.04765836944940244
0.04765917360137614
0.04766010691917421
0.04766117532623155
0.04766238372884629
0.0476637468881375
0.04766528335316601
0.04766700463557631
0.04766891158084128
0.04767099887713434
0.0476732660515578
0.04767571497678771
0.04767835348679848
0.04768121814873568
0.0476843696099945
0.04768777895992137
0.04769112797212333
0.0476940254693707
0.0476964877591627
0.0476987464456793
0.04770097549728487
0.04770321674314385
0.0477053268431472
0.04770724812465416
0.04770895458116459
0.0477104362559518
0.04771195296732939
0.04771366742084181
0.04771544839430573
0.04771732421888224
0.0477194291394998
0.04772173669612087
0.04772420493461329
0.04772686281666157
0.04772973839426843
0.04773284068042681
0.04773618236404267
0.04773977767048269
0.04774363932541103
0.04774777878621749
0.0477522062552861
0.04775692994584748
0.04776195537165411
0.04776728472869785
0.04777291601850409
0.04777884240643779
0.04778505094921298
0.04779151788723475
0.04779820524876915
0.04780508293852125
0.04781212181476497
0.04781924223594567
0.04782639554152678
0.0478335482480023
0.0478406146268642
0.04784752891488307
0.04785427974042113
0.04786092344374714
0.04786742758584545
0.047873800981726
0.04788015587490284
0.04788642936185407
0.04789265057035608
0.04789863433543091
0.04790353599613572
0.04791497916495971
0.04789780820086202
0.04796661310226526
0.047771359631542
0.04690173229527195
0.04690172050440439
0.0469017071617459
0.0469016940202417
0.04690168055587932
0.0469016660470139
0.046901649499842
0.04690162932262813
0.04690160335000242
0.04690156932764854
0.04690152585325778
0.04690147384114674
0.04690141520319249
0.04690135007872374
0.04690127710286503
0.04690119519832041
0.04690110436328227
0.04690100501318563
0.0469008976590883
0.04690078285654078
0.04690066146623977
0.04690053575348258
0.04690041076950884
0.04690028981817813
0.04690016971683097
0.04690004758916149
0.04689992491702406
0.04689980423807231
0.04689968831281429
0.04689958035804404
0.04689948435437566
0.04689940524580642
0.04689934909769833
0.04689932327690449
0.04689933668861698
0.0468994000192197
0.04689952538790419
0.0468997258109707
0.04690002062008856
0.0469004581738553
0.04690107390400396
0.04690187761726648
0.04690289181192495
0.04690413380982719
0.04690561699906037
0.04690734799298987
0.04690928369809827
0.04691142508911223
0.04691384611943612
0.04691659520543853
0.04691969250245114
0.04692311763935018
0.04692681424312301
0.04693066737551609
0.04693449834987608
0.04693812925214298
0.04694159861795474
0.0469451399754156
0.04694888253459338
0.0469525251569205
0.04695520565783465
0.04695662007978913
0.04695757144138018
0.04695841392430649
0.04695890432456659
0.04695892372443719
0.04695860108994383
0.04695817727278891
0.04695773846622046
0.04695725303002675
0.04695671101265321
0.04695614067660672
0.04695556227098391
0.04695496253935019
0.04695434161975012
0.04695370649728007
0.04695306350907244
0.04695241970391672
0.04695178427922046
0.0469511686821804
0.04695058662476219
0.04695005436656977
0.04694959105634552
0.04694921877255179
0.04694896264896702
0.04694885264086079
0.04694892695072081
0.04694921735822997
0.04694975660214207
0.04695058921417543
0.04695172766473106
0.04695319950031899
0.04695502981900197
0.04695720487156094
0.04695970729075863
0.04696248452943103
0.04696549471592738
0.04696860762136591
0.0469717056178488
0.04697471617152826
0.04697739398914559
0.04697966953647044
0.04698148257854325
0.04697993742108194
0.04698899135553517
0.04695667861635749
0.04704741963765258
0.04673703065657533
0.04616239961239069
0.04616238908772639
0.04616237717766149
0.04616236543101136
0.04616235331568082
0.04616234002497142
0.04616232436089984
0.04616230441794758
0.04616227764603617
0.04616224150405205
0.04616219486306196
0.04616213913306485
0.04616207615394527
0.04616200475212952
0.04616192257271459
0.04616182867884971
0.04616172276570641
0.04616160462857578
0.04616147405350613
0.04616133094948428
0.046161176133608
0.04616101299012643
0.04616084637585739
0.0461606766612862
0.04616049839911236
0.04616030758220138
0.04616010403314304
0.04615988820581195
0.04615966056196927
0.04615942172608534
0.04615917272046572
0.0461589151598324
0.04615865141560239
0.04615838481290611
0.04615811987442439
0.04615786261582321
0.04615762090839876
0.04615740492331675
0.04615722750706334
0.04615710432354555
0.04615705487185434
0.04615710943647744
0.04615731212800908
0.04615772589338205
0.04615842231760139
0.04615944822798693
0.04616087799806958
0.04616274965240195
0.04616502233592777
0.04616765399592199
0.04617065448312336
0.04617410600407827
0.0461780685496606
0.04618255195939218
0.04618751017575112
0.04619284672337823
0.04619841549013143
0.04620399063996282
0.0462092417649682
0.04621378601638829
0.04621760597892512
0.04622117078670253
0.04622423121575885
0.04622584253921144
0.04622629654131891
0.04622645162986548
0.04622627233184504
0.04622560085666519
0.04622459595831439
0.04622337515526177
0.04622207431937037
0.04622071832863672
0.04621923353039685
0.04621762806569466
0.04621589851055471
0.04621403832564107
0.04621203942812117
0.04620989422528835
0.046207595704199
0.04620513730757177
0.04620251309961895
0.04619971813146546
0.04619674882943925
0.04619360330226461
0.04619028126004051
0.04618678396662152
0.04618312124969266
0.04617930372271878
0.04617534395340386
0.04617127358484228
0.04616710905969453
0.04616288705826953
0.04615864968567081
0.04615442875865143
0.04615027685910282
0.04614621833655828
0.04614230903677997
0.04613855164020519
0.04613496005344819
0.04613159173579178
0.04612833917048698
0.04612523456067093
0.04612306144502951
0.04611622116443164
0.04612710033355714
0.0460804247733588
0.04621641974203199
0.04575633743853418
0.04542341110469162
0.04542340696588943
0.0454234022828152
0.04542339765747691
0.04542339284587558
0.04542338742978483
0.04542338070727441
0.04542337147483379
0.04542335797021954
0.04542333821804377
0.04542331105568168
0.0454232770219936
0.04542323680131765
0.04542318920438426
0.04542313243337812
0.04542306541342176
0.04542298736767585
0.04542289752829406
0.04542279507108725
0.04542267920468057
0.04542254968013961
0.04542240779543759
0.04542225555570897
0.04542209299408894
0.04542191655290956
0.04542172228673195
0.04542150847623005
0.0454212737494707
0.0454210165966093
0.04542073535575971
0.04542042831726709
0.04542009383782279
0.04541973042122587
0.04541933681691628
0.04541891215382855
0.04541845611807609
0.04541796918014955
0.04541745285684372
0.04541691004742286
0.04541634555474727
0.04541576672462138
0.04541518376422969
0.04541460942394701
0.04541406186073338
0.04541358510063061
0.04541325993649147
0.04541319416760752
0.04541351706512534
0.04541432483250737
0.04541565663317579
0.04541752932446911
0.04541998948009882
0.04542309204736301
0.04542679479266476
0.04543103705410961
0.04543581798063002
0.04544113223584796
0.04544693246166804
0.04545306546669923
0.04545918058369642
0.04546482554378387
0.04546963802063957
0.0454734829777578
0.04547665604369538
0.04547909860445733
0.0454801199628971
0.04548012181848804
0.04547985143299929
0.0454792473299506
0.0454785315712189
0.04547750359754322
0.04547604656138198
0.04547451713876977
0.0454728527063479
0.0454710576454237
0.04546912384497181
0.04546704105046014
0.04546479948259736
0.04546238945768147
0.04545980074280775
0.04545702286965263
0.04545404522636858
0.04545085717575658
0.04544744831139481
0.04544380865356317
0.04543992673641033
0.04543579537013529
0.04543140712003579
0.04542675172568397
0.0454218337881037
0.04541664458238107
0.04541119197033575
0.04540548688417127
0.04539953663168217
0.04539337714082817
0.04538702243187855
0.04538053337514521
0.04537394456267255
0.04536730734842371
0.04536074057136518
0.04535423185303054
0.04534766682889644
0.04534308496844423
0.04533115243531739
0.0453454893838056
0.0452755421559894
0.04547531836562296
0.04484591139271438
0.04469945067848066
0.04469945073541245
0.04469945080034558
0.04469945086139785
0.04469945090078485
0.04469945085279448
0.04469945053719124
0.04469944955357771
0.04469944720899065
0.04469944260753582
0.04469943504594166
0.04469942470630765
0.044699411660031
0.0446993950878328
0.04469937420040589
0.04469934832850415
0.04469931679192491
0.04469927883809566
0.04469923361733592
0.04469918023326894
0.0446991180701326
0.04469904734099594
0.04469896807400225
0.04469887913329648
0.04469877899614517
0.04469866619503388
0.04469853931868994
0.04469839681866368
0.04469823691751041
0.04469805752320461
0.04469785622256017
0.04469763030516204
0.0446973767656366
0.04469709230831174
0.044696773366341
0.04469641613966482
0.04469601665811838
0.04469557088279739
0.04469507487435821
0.04469452502560124
0.04469391834478995
0.04469325284892072
0.04469252812517368
0.04469174609530049
0.04469091142995507
0.04469002977829428
0.04468910914038387
0.04468818210616525
0.04468734271654779
0.04468672435603242
0.04468644958070554
0.04468664838778143
0.04468744215928288
0.04468891831208361
0.04469118807310366
0.04469442160209631
0.04469850908882689
0.04470316578079784
0.04470831581577284
0.04471392269073272
0.04471986730100989
0.04472580884397623
0.04473112815126919
0.04473531074553461
0.04473838316935349
0.04474081101780436
0.04474231709329125
0.04474243169337858
0.04474187307416277
0.04474095420389802
0.04473999523846056
0.04473893380856442
0.04473748535270801
0.04473593495366828
0.044734262828799
0.04473246188756811
0.04473052338592536
0.04472844105058892
0.04472620654185237
0.04472381123145571
0.04472124658206843
0.0447185043037689
0.04471557616707318
0.04471245405145777
0.04470913087290362
0.04470559807290856
0.04470184990005168
0.04469788109070691
0.04469368200282769
0.04468925491522031
0.04468458900238671
0.04467968579517273
0.04467454519547086
0.04466916000319132
0.04466354613194309
0.04465769112371062
0.04465162175818674
0.04464534052165195
0.04463885210379425
0.04463223268915843
0.04462551070322211
0.04461808181178789
0.04461370429491909
0.04459787895387166
0.04462079209834718
0.04451991774766446
0.04479950064025287
0.04398340946840452
0.0439944214003304
0.04399442134836704
0.04399442129010336
0.0439944212320918
0.0439944211633066
0.04399442104981267
0.04399442080506384
0.04399442024393387
0.04399441903563778
0.04399441675660429
0.04399441313814433
0.04399440845162132
0.04399440288922637
0.04399439612099176
0.043994387870076
0.04399437796482766
0.04399436625224257
0.0439943525531199
0.0439943366363673
0.04399431822796233
0.04399429724145954
0.04399427446753679
0.0439942517144126
0.04399422843707042
0.04399420220127213
0.04399417207303814
0.04399413751494768
0.04399409786291023
0.04399405226980026
0.0439939996673475
0.04399393873299721
0.04399386787316872
0.0439937851933328
0.04399368846419098
0.04399357508992913
0.0439934420808087
0.04399328603278017
0.04399310311776913
0.04399288908890429
0.04399263930643438
0.04399234879145369
0.04399201231479818
0.04399162453565419
0.04399118022401935
0.04399067456462633
0.0439901035177066
0.04398946459818773
0.04398875756096686
0.04398798577621031
0.04398715691295531
0.04398628177154532
0.04398538531660354
0.04398457874604691
0.04398407128480854
0.043984045797718
0.04398461089833289
0.0439861715471012
0.04398896314879761
0.04399260244299983
0.0439967757027707
0.04400138637633851
0.04400636448665517
0.04401154847588263
0.04401657414043111
0.04402088155709119
0.04402411283649742
0.04402631654546586
0.04402764423035273
0.04402795301941982
0.04402735209603646
0.04402624824064347
0.04402520374395483
0.04402414905086573
0.04402282047716423
0.04402138156583936
0.04401982594978172
0.04401816048703019
0.04401637484969971
0.04401446052657285
0.0440124107700124
0.04401021995940806
0.04400788136974954
0.04400538810825816
0.04400273366672528
0.04399991244199051
0.04399691738511113
0.04399374332417479
0.04399038658885482
0.04398683870332924
0.04398310156473419
0.04397916500308492
0.04397502927679605
0.04397069166431174
0.04396614093673956
0.04396138577632327
0.04395640256399545
0.04395120513361016
0.04394578113005236
0.04394009892187248
0.04393417572075172
0.04392818542129783
0.04392074501800243
0.04391792655738447
0.04389773383171305
0.04393435968012995
0.04379387273694314
0.04416341277366626
0.04316664454662718
0.04328344411760637
0.0432834440969868
0.0432834440739828
0.04328344405005704
0.04328344401326033
0.04328344392375503
0.04328344367616375
0.04328344303784203
0.04328344159441436
0.0432834387971322
0.04328343424439657
0.04328342823020619
0.0432834209787361
0.04328341205312718
0.04328340110678099
0.04328338795909509
0.04328337250844586
0.04328335469794769
0.04328333450114684
0.04328331192268655
0.04328328708893044
0.04328326052987012
0.04328323329192305
0.04328320602416787
0.04328317845936216
0.04328315037589287
0.04328312196315187
0.04328309347788758
0.04328306514234935
0.04328303708294232
0.04328300930751904
0.04328298172713827
0.04328295415052876
0.04328292626686647
0.04328289762660244
0.04328286762134849
0.04328283546244108
0.04328280015921294
0.04328276049930396
0.04328271503290812
0.04328266206647767
0.04328259968895545
0.04328252583445585
0.0432824384267141
0.04328233543169496
0.04328221499964054
0.04328207577074653
0.04328191724692983
0.04328174026727516
0.04328154757179661
0.04328134434701558
0.04328113904132256
0.04328094673037592
0.04328079590187321
0.04328072982595517
0.04328080476073638
0.04328104053004089
0.04328181337783035
0.04328359560540186
0.04328633718322238
0.04328984177057214
0.04329395714748536
0.04329856313200082
0.04330352309019267
0.04330861088675973
0.04331338513700402
0.04331720336498578
0.04331984033359623
0.04332155398017692
0.0433224516668433
0.0433225796203487
0.04332221136747423
0.04332186716766823
0.04332158321287649
0.0433212363018402
0.04332083413079209
0.04332036571649275
0.04331982724369214
0.04331921663793405
0.04331852878839314
0.04331775274850089
0.04331687747854189
0.04331589287205777
0.04331478713076824
0.04331354869608708
0.04331216449450492
0.04331062169230383
0.04330890816940683
0.04330700593786067
0.04330490581366246
0.0433025870957774
0.04330003786453469
0.04329724287453951
0.04329417784607623
0.04329083690141573
0.04328718153321707
0.04328319573734415
0.04327884559722685
0.04327408739578655
0.04326887069846543
0.04326361008819971
0.04325590391701271
0.04325517367932302
0.0432280554601528
0.04328246731472726
0.04309339285335955
0.04355199523070994
0.04239837950351601
0.04263275639198425
0.04263275701742307
0.04263275772561581
0.0426327584224273
0.04263275912473642
0.0426327598275931
0.04263276045881253
0.04263276081653097
0.04263276049951362
0.04263275892729629
0.04263275555233188
0.04263275029285245
0.04263274343650128
0.04263273478758493
0.04263272374651754
0.04263270990636346
0.04263269298162099
0.04263267273612231
0.04263264896751178
0.04263262151138596
0.04263259025722914
0.04263255510505709
0.04263251567610314
0.04263247247052543
0.04263242650767248
0.04263237805669732
0.04263232752089757
0.04263227543187069
0.04263222235235049
0.04263216876430447
0.04263211504028037
0.04263206149886778
0.04263200842776654
0.04263195609043976
0.04263190473830962
0.04263185461457975
0.04263180596599056
0.04263175906076033
0.04263171421399858
0.04263167182984719
0.0426316324769093
0.04263159692647519
0.04263156617987077
0.04263154145559989
0.042631524304035
0.0426315168773818
0.04263152209257538
0.04263154385923018
0.04263158736871706
0.04263165942330897
0.04263176862790083
0.04263192489400625
0.04263213882289608
0.04263242355017993
0.04263279851791617
0.04263330202141144
0.04263404333013471
0.04263506826304138
0.04263642871601308
0.04263828737122773
0.04264071810970776
0.04264374872677472
0.04264736252377474
0.04265148878893853
0.04265599059324619
0.04266063589138416
0.04266504996442088
0.04266872690303217
0.04267127968044949
0.0426727391129051
0.04267349775301497
0.04267366474589492
0.04267337132343239
0.04267310849325945
0.04267289899088694
0.04267263465110524
0.04267234742184799
0.04267203541513075
0.0426717004287713
0.04267133614188814
0.04267093709005192
0.04267049975095776
0.04267001905369009
0.04266948813001545
0.0426688999157038
0.04266824479444126
0.04266751132510858
0.04266668755087857
0.04266575411644165
0.04266469738668887
0.04266349044014924
0.04266211106109045
0.04266053082677187
0.04265870900167251
0.04265661940109566
0.04265420433440976
0.04265142334695297
0.04264821549927512
0.04264450852100671
0.04264003286275608
0.0426355871946238
0.04262696331621897
0.04262843458838641
0.04259120319378529
0.04266734379729461
0.04242404299272785
0.04295599594430415
0.04167566716236168
0.04202663283402536
0.0420266343057302
0.04202663597187714
0.0420266376129853
0.04202663928298594
0.04202664102164777
0.04202664280105028
0.04202664446679382
0.04202664565260872
0.04202664576392472
0.04202664410405653
0.04202664018446011
0.04202663452251726
0.04202662737820888
0.04202661798762378
0.04202660587333021
0.04202659069396466
0.04202657222632651
0.04202655036551604
0.04202652498414697
0.04202649603682597
0.04202646369014226
0.04202642818879463
0.04202638981533114
0.04202634877000099
0.04202630513648296
0.04202625915484087
0.04202621113447506
0.04202616137806366
0.04202611008031214
0.04202605730426653
0.04202600304816321
0.0420259472803545
0.04202588997656886
0.04202583108583601
0.04202577050413046
0.04202570812119289
0.04202564384823751
0.04202557763751078
0.04202550951132693
0.04202543958074826
0.0420253680998733
0.04202529558462817
0.04202522293447201
0.04202515161051808
0.04202508378156891
0.04202502256072669
0.04202497240381729
0.04202493989755311
0.04202493463641088
0.04202496698016826
0.04202504607489007
0.04202516879651967
0.04202535078120126
0.04202563560655573
0.04202605183745327
0.04202661557943888
0.04202734254157393
0.04202836923009863
0.04202984081763813
0.04203176865648876
0.0420341642201093
0.04203704902188302
0.04204042663142776
0.04204425175058308
0.04204840328148127
0.04205266781988689
0.04205672890513492
0.04206014937479625
0.04206245224972846
0.04206363705492294
0.04206445644718806
0.04206484289351232
0.04206472906701942
0.04206462762980578
0.04206460324848783
0.0420645458040822
0.04206447757019291
0.0420644089488157
0.04206433765998762
0.04206426174942444
0.042064181958183
0.04206409629169018
0.04206400204367185
0.04206389647072836
0.04206377472742369
0.04206363013247547
0.04206345616350474
0.04206323845629614
0.04206296662249087
0.04206261621063852
0.04206216400505969
0.04206157734239181
0.04206080603284965
0.04205980543395793
0.04205849174523826
0.04205678656213686
0.04205457612332775
0.04205177034702274
0.04204787943613088
0.04204430252931749
0.04203463038569165
0.04204033563858315
0.04199063270539991
0.04209238037990184
0.04179968619264624
0.04239331806344823
0.04095439122877369
0.04144188410545101
0.0414418874148059
0.04144189116057873
0.04144189485090501
0.0414418986218035
0.04144190261632111
0.04144190691574729
0.04144191148769467
0.04144191606170518
0.04144192004152173
0.04144192252757394
0.04144192251446097
0.04144192032196574
0.04144191615626834
0.04144190891087502
0.04144189792385752
0.04144188276490707
0.04144186300446034
0.04144183819012371
0.04144180793751388
0.04144177165620912
0.04144172858855488
0.04144167898792935
0.04144162479903482
0.04144156766605221
0.04144150783565528
0.04144144548365205
0.04144138110385298
0.04144131524111523
0.04144124831524011
0.04144118058350157
0.04144111223132669
0.04144104341301574
0.0414409742171717
0.04144090469418239
0.0414408349396562
0.04144076509275053
0.04144069523978732
0.04144062537459001
0.04144055547204263
0.04144048549920676
0.04144041544765189
0.0414403453491499
0.04144027531319131
0.04144020559027156
0.04144013665902559
0.04144006930737687
0.04144000455059791
0.04143994333577786
0.04143988772227591
0.04143984827536766
0.04143983175119195
0.04143985942008716
0.0414399514298347
0.04144010616535547
0.0414403398146054
0.04144066871185619
0.04144111181317973
0.0414417749173044
0.04144288274954448
0.04144453929278984