/*--------------------------------*- C++ -*----------------------------------*\
| =========                 |                                                 |
| \\      /  F ield         | OpenFOAM: The Open Source CFD Toolbox           |
|  \\    /   O peration     | Version:  v1812                                 |
|   \\  /    A nd           | Web:      www.OpenFOAM.com                      |
|    \\/     M anipulation  |                                                 |
\*---------------------------------------------------------------------------*/
FoamFile
{
    version     2.0;
    format      ascii;
    class       surfaceScalarField;
    location    "0.00000067";
    object      phi;
}
// * * * * * * * * * * * * * * * * * * * * * * * * * * * * * * * * * * * * * //

dimensions      [0 3 -1 0 0 0 0];
oriented        oriented;


internalField   nonuniform List<scalar> 
87612
(
1.559763057561624e-06
4.204184351890143e-08
3.046252941580404e-06
1.26882805536622e-07
4.467939774887264e-06
2.149049725129312e-07
5.831347324892257e-06
3.082223818940109e-07
7.142265003756488e-06
4.078224244744441e-07
8.408063078548281e-06
5.124644619049052e-07
9.639603435630617e-06
6.190867292123095e-07
1.085043094328311e-05
7.255288412491206e-07
1.205377301788093e-05
8.327273626018229e-07
1.326085717456586e-05
9.434022948147639e-07
1.448139575926287e-05
1.059895094602341e-06
1.572422409191938e-05
1.184021230942402e-06
1.699748707469225e-05
1.317528495927378e-06
1.830877397228119e-05
1.462156470309266e-06
1.966523730499752e-05
1.619660958983067e-06
2.107369522821305e-05
1.791840032483581e-06
2.254071611069446e-05
1.980562396819508e-06
2.407268605029643e-05
2.187796148597072e-06
2.567586111644193e-05
2.415636944853293e-06
2.73564063312931e-05
2.666335458748858e-06
2.91204232084868e-05
2.942324419806245e-06
3.097396731523683e-05
3.246245698150494e-06
3.292305695001858e-05
3.580977938517474e-06
3.497367366429779e-05
3.949665233920825e-06
3.713175504041636e-05
4.355747310281332e-06
3.940317984459532e-05
4.802991675620729e-06
4.17937454140613e-05
5.295528167234018e-06
4.430913695292144e-05
5.837886281538458e-06
4.695488826077912e-05
6.435035639142363e-06
4.973633327234552e-05
7.092429974432542e-06
5.26585476390355e-05
7.816055031310429e-06
5.572627947389888e-05
8.61248076213681e-06
5.894386830061304e-05
9.488918210284883e-06
6.23151512045624e-05
1.045328142304993e-05
6.584335521177597e-05
1.151425476078509e-05
6.953097498255432e-05
1.268136588122043e-05
7.337963501411423e-05
1.396506475644114e-05
7.738993555718069e-05
1.537680913393071e-05
8.156128118998942e-05
1.692915723719128e-05
8.589169008604782e-05
1.86358691149413e-05
9.037758012291434e-05
2.051201917213237e-05
9.501352502789268e-05
2.257412343502025e-05
9.97919718104235e-05
2.484028421646946e-05
0.0001047029148997096
2.733034878671238e-05
0.0001097335418686931
3.006606340701648e-05
0.0001148679151168375
3.307117414085423e-05
0.0001200868464944303
3.63713828384073e-05
0.0001253682395232841
3.999404166814919e-05
0.0001306881891072397
4.396757216204209e-05
0.0001360226975847311
4.832104106151005e-05
0.0001413485823516071
5.30851779851201e-05
0.0001466404732301435
5.829651349846505e-05
0.0001518621561792539
6.400328078288965e-05
0.0001569661387936257
7.025746386462784e-05
0.0001619000873099302
7.710822006069563e-05
0.0001666079087671006
8.46075549028267e-05
0.000171031092367636
9.281041127946442e-05
0.000175109925188975
0.0001017751745086615
0.0001787864751637877
0.0001115623179151818
0.000182012059347781
0.0001222303672660039
0.0001847572887028495
0.0001338338135549259
0.0001870129888480374
0.0001464327700048012
0.000188760025417572
0.0001601246474904625
0.0001899614066038818
0.0001750225089636972
0.000190590800351474
0.0001912193423123865
0.0001906445499918498
0.000208805310419613
0.0001901156626459459
0.0002279065933059127
0.0001890283225138118
0.0002486257503921252
0.0001874729215925627
0.0002710421688912068
0.0001855928808866599
0.0002952613246959156
0.0001834817893414469
0.0003215056094052066
0.0001812246255019554
0.0003499714937194572
0.0001788927706221819
0.0003808770927697965
0.0001763365899177613
0.0004146660747644155
0.0001735072393869023
0.0004514800435408661
0.0001704817340316503
0.0004914570275552467
0.0001672431873987981
0.0005349782143128405
0.0001637635437940661
0.000582367532404702
0.0001600385737280938
0.0006339416469559745
0.00015606021446156
0.000690075073396534
0.0001518204502774305
0.0007511713147741296
0.0001473131563505392
0.0008176678123968853
0.0001425339547486512
0.0008900411065718748
0.0001374803404446965
0.0009688100204039628
0.0001321520117166793
0.00105453921602801
0.0001265511182871879
0.001147843370629489
0.0001206824705272891
0.001249391671559891
0.0001145538200343339
0.001359912597392945
0.0001081754913236253
0.001480199849110717
0.0001015561187112107
0.00161112199461242
9.470472595413573e-05
0.00175362238705707
8.764142054243705e-05
0.001908717365111706
8.039031117649188e-05
0.002077521450065943
7.297919022815558e-05
0.00226124865784833
6.543947326659973e-05
0.002461221036461554
5.780596405038858e-05
0.0026788784139162
5.011887691276819e-05
0.002915786562937622
4.241336034924239e-05
0.003173661047263525
3.457171844263856e-05
0.003454516875706597
2.655132236753101e-05
0.0037603062608751
1.82759963751009e-05
0.00409326978409243
9.621638621003368e-06
0.004455858100454099
3.934231785773541e-07
0.004850757708442423
-9.706601083968655e-06
0.005280919443862555
-2.114183811972188e-05
0.00574960897183575
-3.462150350188499e-05
0.006260447206282159
-5.094759398485085e-05
0.006817201295882974
0.007352949300615154
6.618374322936784e-09
3.542346918853894e-08
2.621023996457561e-08
1.072909398831084e-07
5.889560792060683e-08
1.822196045511237e-07
1.049986983134471e-07
2.621192914862389e-07
1.645285939606149e-07
3.482925288222976e-07
2.364035066898807e-07
4.405895491692537e-07
3.184529190964687e-07
5.370373168004928e-07
4.087432170597315e-07
6.352385432815546e-07
5.070584840926886e-07
7.344120955655084e-07
6.140334167005788e-07
8.364273622019161e-07
7.302156443298465e-07
9.43712866970261e-07
8.562651088519283e-07
1.057971766418924e-06
9.930418390680141e-07
1.180751765710261e-06
1.14159301174438e-06
1.31360529763204e-06
1.303135792751481e-06
1.458118177975514e-06
1.479048252363668e-06
1.615927572870173e-06
1.670868128631311e-06
1.788742520551718e-06
1.88029768164568e-06
1.978366595580859e-06
2.109213174606902e-06
2.186721451892305e-06
2.359677918257882e-06
2.415870715096746e-06
2.6339579386772e-06
2.668044399387036e-06
2.934538962513175e-06
2.94566467431396e-06
3.264142345040331e-06
3.251374555990644e-06
3.625735421187528e-06
3.588072157772929e-06
4.022528074572512e-06
3.958954656895661e-06
4.457941486808756e-06
4.367578263384609e-06
4.935633831744804e-06
4.817835822298194e-06
5.459588305959176e-06
5.313931807323843e-06
6.034162464631253e-06
5.860461480469451e-06
6.664116350111689e-06
6.46247608895224e-06
7.354642127291468e-06
7.125529254130068e-06
8.111394987429282e-06
7.855727901998877e-06
8.940524977652273e-06
8.659788220060505e-06
9.848709257396098e-06
9.545097143304722e-06
1.084318407015811e-05
1.051977994802193e-05
1.193177544112658e-05
1.159277451025152e-05
1.312292731563087e-05
1.277391288193689e-05
1.442572563138138e-05
1.407401081817978e-05
1.58499168869545e-05
1.550496598161861e-05
1.740592044327795e-05
1.70798655586167e-05
1.910466077857063e-05
1.881327883684019e-05
2.095735375042853e-05
2.072143046316105e-05
2.297547241555869e-05
2.282216555133856e-05
2.517072798296476e-05
2.513509321930725e-05
2.755502286691468e-05
2.768176852306553e-05
3.014031045764278e-05
3.048588655012528e-05
3.293820441331474e-05
3.357348888273572e-05
3.595905714449377e-05
3.697318893696935e-05
3.921019364868343e-05
4.07164356578519e-05
4.269338395342713e-05
4.483785075676581e-05
4.640288950183733e-05
4.93756724367086e-05
5.032711980132843e-05
5.43722831989735e-05
5.445575284176521e-05
5.987464774245266e-05
5.877898293494473e-05
6.593423377144766e-05
6.32803148879612e-05
7.260688810767848e-05
6.793466555631909e-05
7.995320423446915e-05
7.270654679396143e-05
8.803853004182242e-05
7.754962007615085e-05
9.693210122647012e-05
8.240743532625824e-05
0.0001067045026650744
8.721439936132936e-05
0.0001174234032309325
9.189715033799453e-05
0.0001291510625782595
9.637692259412995e-05
0.000141952997748666
0.000100574246630694
0.0001559273234538951
0.0001044103439324225
0.0001711864116619688
0.0001078132510484197
0.0001878164351963848
0.0001107271190151803
0.0002058914424528558
0.0001131234932344038
0.0002255102190866854
0.0001149413974037319
0.0002468078462227922
0.0001160984018689781
0.0002698851644259391
0.0001165578125738671
0.0002948019139910308
0.0001164151609799951
0.0003216482609990747
0.0001158957435006119
0.0003504909111988417
0.000115269878909977
0.000381502957360375
0.0001146847483870981
0.0004152512052873026
0.0001141191997056478
0.0004520455922223041
0.0001134466054922303
0.0004921296217686252
0.000112720060825771
0.0005357047589792836
0.0001119292210282781
0.0005831583722021694
0.0001110572545874423
0.0006348136133968199
0.0001100935055061752
0.000691038822477808
0.00010902367916726
0.0007522411411130358
0.000107831609310708
0.000818859882253415
0.0001064991589919983
0.0008913735568905881
0.0001050060182258326
0.0009703031611701402
0.0001033296280852499
0.001056215606168571
0.0001014451740749736
0.001149727824639768
9.932561634571926e-05
0.001251511229289153
9.694173737636837e-05
0.001362296476362305
9.426301897944605e-05
0.001482878567507626
9.125364307992366e-05
0.001614131370511943
8.787060552996341e-05
0.001757005424607021
8.407624026265213e-05
0.001912511730379022
7.983100842883406e-05
0.002081766681899759
7.509349732842067e-05
0.002265986168948743
6.981996689637705e-05
0.002466494566893595
6.396304664475388e-05
0.002684735334167824
5.746862487841301e-05
0.002922280984703958
5.028729734771152e-05
0.003180842374794222
4.248478061278318e-05
0.003462319392441523
3.403058487061912e-05
0.003768760456617265
2.490003993705271e-05
0.004102400329025991
1.507021226399887e-05
0.004465687928127155
4.521466256506656e-06
0.004861306454449918
-6.753008266563616e-06
0.005292193918385623
-1.871339803658486e-05
0.005761569361605769
-3.124062415675449e-05
0.006272974432402326
-4.281648796545674e-05
0.006828777159691673
0.007310132812649697
2.607867088444595e-09
3.281560209506484e-08
1.05052109362782e-08
9.939359602921769e-08
2.390879133459302e-08
1.688160241468274e-07
4.313036206436328e-08
2.428977207472291e-07
6.840714641847561e-08
3.23015744463754e-07
9.957143090034761e-08
4.09425264681652e-07
1.358380597330637e-07
5.007706879645887e-07
1.761616054360215e-07
5.949149975778355e-07
2.19844877278067e-07
6.907288237192791e-07
2.669674739282619e-07
7.893047655474056e-07
3.178603053164973e-07
8.928200355814705e-07
3.72758715196929e-07
1.003073356536972e-06
4.319761672437398e-07
1.121534313663485e-06
4.959148681356944e-07
1.249666596738261e-06
5.65058141686938e-07
1.38897490442379e-06
6.399647046239499e-07
1.541021009932608e-06
7.212673582793317e-07
1.707439866896313e-06
8.096757723742456e-07
1.889958181485274e-06
9.05982634307583e-07
2.090414589958573e-06
1.011072187359696e-06
2.310781162043755e-06
1.125929356564655e-06
2.5531872301818e-06
1.251645689096959e-06
2.819948341781091e-06
1.389414473339357e-06
3.113605771748199e-06
1.540500583374723e-06
3.436986047736533e-06
1.706168771905111e-06
3.793286468364871e-06
1.88773728056868e-06
4.186009754720511e-06
2.086688384316928e-06
4.61888471854975e-06
2.30467739171539e-06
5.095942799925147e-06
2.543548232383331e-06
5.621590639802199e-06
2.805354028648068e-06
6.200670292687591e-06
3.092380563048392e-06
6.838502719729268e-06
3.407173014393644e-06
7.540935450653236e-06
3.752566389540694e-06
8.314394844913799e-06
4.131720128379798e-06
9.165943404465474e-06
4.548157403759369e-06
1.010334267264242e-05
5.00580967016946e-06
1.113512224384116e-05
5.509067028364907e-06
1.227065552374135e-05
6.062834951822769e-06
1.352024289472164e-05
6.67259789375393e-06
1.48952030396872e-05
7.344490186722552e-06
1.640797326564776e-05
8.085392987102282e-06
1.807237603646083e-05
8.903044143588224e-06
1.990377930667512e-05
9.806138275895248e-06
2.191907141903228e-05
1.080443354604811e-05
2.413679794915451e-05
1.190886500936402e-05
2.657733705975e-05
1.313165972128234e-05
2.926309183820608e-05
1.448644816547552e-05
3.221870043854233e-05
1.598821845433463e-05
3.547141864810911e-05
1.765278658154062e-05
3.905186753064626e-05
1.949642186461933e-05
4.299421547368776e-05
2.153607838561241e-05
4.733601591571542e-05
2.378971095306749e-05
5.21186506315186e-05
2.627649146092173e-05
5.738786723459775e-05
2.901629482882346e-05
6.319443040354595e-05
3.202831017255587e-05
6.959487276394557e-05
3.53292793183224e-05
7.665223508870245e-05
3.893135831419901e-05
8.443645104594677e-05
4.2839879701257e-05
9.302357983941225e-05
4.704935761362982e-05
0.0001024950247527011
5.153535374242578e-05
0.0001129374071021365
5.624387247877723e-05
0.0001244425438419085
6.108903915085186e-05
0.0001371078310765908
6.598053171042928e-05
0.0001510358308943169
7.08379274457194e-05
0.0001663290159266788
7.557418963023658e-05
0.0001830801730118658
8.009210139662905e-05
0.0002013735306864669
8.427763148578565e-05
0.00022132468899753
8.801664037289901e-05
0.0002430688373356764
9.119500381452619e-05
0.0002667068009843143
9.363637304035616e-05
0.0002923605447651985
9.517355489535775e-05
0.000320111079144075
9.569821010049475e-05
0.0003499662559937052
9.529149745866623e-05
0.0003819096700021928
9.44567902458416e-05
0.0004160859125000985
9.356439041783015e-05
0.0004529379920503158
9.265896697612295e-05
0.0004930350452103252
9.165231406051561e-05
0.0005367114118948994
9.056354030489842e-05
0.0005842471459577819
8.938382361268398e-05
0.0006359933300890456
8.810504758758295e-05
0.0006923175985028847
8.672025859203736e-05
0.0007536259301085783
8.522148086663532e-05
0.0008203586599788055
8.36001372467679e-05
0.0008929949005104613
8.184688484089671e-05
0.0009720564135760111
7.995149523456437e-05
0.001058110995774894
7.790268130423578e-05
0.001151776638570098
7.568789059486772e-05
0.001253726019998512
7.329308843283643e-05
0.001364691278524338
7.070239896115823e-05
0.001485469256979298
6.790593592563793e-05
0.001616927833547459
6.490000505771403e-05
0.001760011355474935
6.166419772332962e-05
0.001915747537713394
5.817503367466734e-05
0.002085255845948415
5.440573547051431e-05
0.002269755467152891
5.032609174847486e-05
0.002470574210615632
4.590244412770446e-05
0.002689158981788591
4.109731142533721e-05
0.002927086117406322
3.586799388603748e-05
0.003186071692333517
3.018613654374187e-05
0.003468001249783817
2.400261562783526e-05
0.003774943977533168
1.726350865898685e-05
0.004109139435994837
9.909317760775266e-06
0.004473042119025363
1.873667944239056e-06
0.004869342104266454
-6.926211296582523e-06
0.005300993797626442
-1.663227148159696e-05
0.005771275421790782
-2.736260014480838e-05
0.006283704761065538
-3.639932394031393e-05
0.00683781388348718
0.007273733488709383
1.781141213088401e-09
3.103446088134488e-08
7.175998988280886e-09
9.399873825491063e-08
1.633459695939965e-08
1.596574261769181e-07
2.947616682336947e-08
2.297561508808743e-07
4.678193264126036e-08
3.057099786479757e-07
6.817016423490014e-08
3.880370330865007e-07
9.310346136495538e-08
4.758373908354002e-07
1.207711759351284e-07
5.67247283007544e-07
1.505338553867676e-07
6.609661442668364e-07
1.823609032799663e-07
7.574777176567314e-07
2.164378468656384e-07
8.587430919971428e-07
2.528644979912365e-07
9.666467054119465e-07
2.917961108264556e-07
1.082602700830712e-06
3.33449008208633e-07
1.20801369935689e-06
3.780923687461818e-07
1.344331543884638e-06
4.260417456119963e-07
1.493071633066861e-06
4.77656026646258e-07
1.655825585862129e-06
5.333374364251303e-07
1.834276771705988e-06
5.935339150983891e-07
2.030218111285417e-06
6.587430875240293e-07
2.245571989618227e-06
7.295165460196047e-07
2.482413771686156e-06
8.064619382207758e-07
2.743002949580562e-06
8.902378986428956e-07
3.029829811325902e-06
9.815324915721903e-07
3.345691454807313e-06
1.081007414617855e-06
3.693811545319457e-06
1.189375387513394e-06
4.077641781824823e-06
1.30749558222913e-06
4.500764523833947e-06
1.436329051338415e-06
4.967109330816007e-06
1.576926458372916e-06
5.480993232767801e-06
1.73043699712031e-06
6.047159753939828e-06
1.898118079872395e-06
6.670821636977677e-06
2.081345857010867e-06
7.357707673514155e-06
2.281626631774155e-06
8.114114070150289e-06
2.500609233462363e-06
8.946960802776977e-06
2.7400984156941e-06
9.86385349041031e-06
3.002069348928323e-06
1.087315131060654e-05
3.288683285098831e-06
1.198404158757082e-05
3.6023044890176e-06
1.320662169080284e-05
3.945518565161902e-06
1.455198896354296e-05
4.321152359320478e-06
1.603233947148899e-05
4.732451977720092e-06
1.766107641806093e-05
5.183302271812886e-06
1.945292901258232e-05
5.678290882819078e-06
2.142408280802583e-05
6.222766027863296e-06
2.359232280411037e-05
6.822912390246671e-06
2.597719069736632e-05
7.485846467732607e-06
2.860015776072068e-05
8.219731785847975e-06
3.148481512042632e-05
9.033929211424329e-06
3.465722122253278e-05
9.939218978963403e-06
3.81465777631075e-05
1.094804877925054e-05
4.198538567339935e-05
1.20747913702802e-05
4.62092733246859e-05
1.333549227612297e-05
5.085794972567603e-05
1.474735894190824e-05
5.597600056881258e-05
1.632903542417835e-05
6.161275392127488e-05
1.810141669446154e-05
6.782249149366218e-05
2.008855887035787e-05
7.466509291280616e-05
2.231824047715299e-05
8.220676943915037e-05
2.482092860210587e-05
9.052089171446078e-05
2.762702481400153e-05
9.968892854080367e-05
3.07629105664893e-05
0.0001098015213496484
3.424581736610949e-05
0.000120959637042289
3.807822206800383e-05
0.0001332754263746952
4.224248243084929e-05
0.0001468715705314718
4.669517857458252e-05
0.0001618763197829447
5.135457768293474e-05
0.0001784207739035148
5.60914073239389e-05
0.0001966367010454609
6.076500346331496e-05
0.0002166510928581538
6.52609311820582e-05
0.0002385729096169327
6.947689203420926e-05
0.0002624908401321574
7.329808037671177e-05
0.0002885393564226934
7.654600542642259e-05
0.0003168631540943585
7.895032067174348e-05
0.0003475619407483835
8.022885137884175e-05
0.0003806311392950846
8.037499470035732e-05
0.0004159397691785756
7.979429260432325e-05
0.0004535186941463327
7.901161369911935e-05
0.0004938177241155204
7.823123553677783e-05
0.0005374917900572347
7.738116153093388e-05
0.0005850972199636338
7.644878627050954e-05
0.0006369257053494629
7.542838539339162e-05
0.0006933379993800013
7.431255245793276e-05
0.0007547417630440403
7.309302309593998e-05
0.0008215781893407862
7.176056718162162e-05
0.0008943273564247738
7.0305403664428e-05
0.0009735115770932003
6.871694579660852e-05
0.001059699453642716
6.698386235240238e-05
0.001153509722014296
6.509407691297112e-05
0.001255615805437942
6.303475113874744e-05
0.001366750604298557
6.079235044009588e-05
0.001487711657677953
5.835259958217747e-05
0.001619367584405378
5.570034905865235e-05
0.001762663605998456
5.281946161539139e-05
0.001918628425156661
4.969256039064935e-05
0.002088382747173157
4.63008324161501e-05
0.002273147195127388
4.26237114041564e-05
0.002474251331627624
3.863861205921526e-05
0.002693144081133529
3.431993115676021e-05
0.002931404798308773
2.963521535664013e-05
0.003190756408133638
2.454158736062459e-05
0.003473094877779831
1.90021217453104e-05
0.00378048344314848
1.297530108224899e-05
0.004115166256657898
6.412877880304728e-06
0.004479604542227307
-7.405825607021348e-07
0.00487649556470746
-8.538147973770925e-06
0.005308791363039508
-1.704602064010596e-05
0.005779783294457117
-2.658906691801522e-05
0.006293247807343445
-3.185491425235398e-05
0.006843079730821517
0.00724187857445703
1.253948319361678e-09
2.978051256735006e-08
5.052067908389117e-09
9.020061866913275e-08
1.150081437445066e-08
1.532086797166863e-07
2.076032782085589e-08
2.204966374371561e-07
3.298273246835032e-08
2.934875740052934e-07
4.817654056747876e-08
3.728432249911002e-07
6.606194762550316e-08
4.5795198377732e-07
8.612697319141994e-08
5.471822574442093e-07
1.079049864705525e-07
6.391881309901465e-07
1.313297609142633e-07
7.34052943213907e-07
1.564999585827827e-07
8.335728943284049e-07
1.834668127928906e-07
9.39679851201839e-07
2.123285611240552e-07
1.053740952500017e-06
2.432313399687471e-07
1.177110920512693e-06
2.763620107885569e-07
1.311200873063882e-06
3.11942546156505e-07
1.457491097698638e-06
3.502268615643449e-07
1.617541270454748e-06
3.914997342666198e-07
1.793003899004821e-06
4.360773168717503e-07
1.985640528680782e-06
4.843087359113331e-07
2.197340570578533e-06
5.365780834749104e-07
2.430144424122772e-06
5.933055630778169e-07
2.686275469977829e-06
6.549453785350758e-07
2.968189995868108e-06
7.219757332678231e-07
3.278661100074491e-06
7.949176054310858e-07
3.620869673155897e-06
8.743529566761689e-07
3.998206430579813e-06
9.609170467755095e-07
4.414200433734883e-06
1.055303265850502e-06
4.872723111740069e-06
1.15826884580172e-06
5.378027652816761e-06
1.270641093195113e-06
5.934787506546701e-06
1.393324193392033e-06
6.548138536780338e-06
1.527306640408984e-06
7.22372522649705e-06
1.673669351205719e-06
7.967751359353358e-06
1.833594528032293e-06
8.78703562595037e-06
2.008375337098175e-06
9.689072681344436e-06
2.199426473608975e-06
1.068210017409527e-05
2.408295687649399e-06
1.177517237353059e-05
2.63667634671143e-06
1.297824103174064e-05
2.886421113273094e-06
1.430224419698065e-05
3.15955681700542e-06
1.575920376775668e-05
3.458300598065307e-06
1.736233263700084e-05
3.785077237434242e-06
1.912615237321299e-05
4.142537499619316e-06
2.106662254584082e-05
4.533577463136488e-06
2.3201282840593e-05
4.961358860680127e-06
2.55494092998226e-05
5.42933050741329e-06
2.813218611398719e-05
5.941251027690464e-06
3.097289460014927e-05
6.501351070610196e-06
3.409712117961268e-05
7.114942688212834e-06
3.753298614550468e-05
7.788933937765585e-06
4.131139442384629e-05
8.531895903708286e-06
4.546631135874304e-05
9.354229475323786e-06
5.003561615405996e-05
1.02684330594459e-05
5.506179698469076e-05
1.128941095827968e-05
6.059177602244067e-05
1.24341128166795e-05
6.66777896352615e-05
1.372063657194628e-05
7.337856915753886e-05
1.516821153329942e-05
8.075919447779681e-05
1.679788174794068e-05
8.889122149981834e-05
1.863315310543288e-05
9.785365718331127e-05
2.070054341122726e-05
0.0001077341310438534
2.302993888506375e-05
0.0001186302415684518
2.565434102610925e-05
0.0001306510242336494
2.860747342564278e-05
0.000143918438131937
3.191510700744142e-05
0.000158568686201145
3.558294526349316e-05
0.000174752935647462
3.958376880609459e-05
0.0001926358775028581
4.384703805996855e-05
0.0002123878236042803
4.824782053890239e-05
0.0002341721271379978
5.26053656875882e-05
0.0002581332949834682
5.676119314327024e-05
0.00028438352896701
6.061314224202829e-05
0.0003130112049955971
6.403369346511557e-05
0.0003441413895252888
6.673518572241647e-05
0.0003779296470377776
6.830989382593679e-05
0.0004143650610750573
6.86500978416064e-05
0.0004531784901306603
6.816382527768493e-05
0.0004943039966794178
6.743507280888594e-05
0.0005382205425260378
6.667790557180809e-05
0.000585854387200716
6.587042853112869e-05
0.0006377331823901316
6.499499562096602e-05
0.0006942134322901618
6.404404305616565e-05
0.0007556927156088278
6.300890407290462e-05
0.0008226133283240418
6.188183622283756e-05
0.0008954544242748383
6.065374004910552e-05
0.0009747396732669342
5.931514994902472e-05
0.00106103804374279
5.785575795618541e-05
0.001154969114007141
5.626422639274479e-05
0.001257207337001382
5.452808494665322e-05
0.001368486745744647
5.26336662593364e-05
0.001489606076365267
5.056595967252413e-05
0.00162143529099219
4.830841140931319e-05
0.001764921154261668
4.584294508305278e-05
0.001921093891482918
4.314985561540711e-05
0.002091075836640802
4.020772922843839e-05
0.002276089321514351
3.699332447451865e-05
0.002477465736381543
3.348134906487825e-05
0.00269665605654317
2.964453227232565e-05
0.002935241615101325
2.545442479138914e-05
0.003194946515614573
2.088790785573396e-05
0.00347766139471548
1.591204557704159e-05
0.003785459305427169
1.049131714726104e-05
0.004120586985087676
4.587667429890882e-06
0.004485508191944678
-1.843599450962762e-06
0.004882926831588314
-8.846851013530395e-06
0.005315794614602072
-1.635848426789293e-05
0.005787294927711479
-2.495587320861463e-05
0.006301845196284165
-2.694136876062508e-05
0.006845065226373527
0.007214937205696405
1.039048259910979e-09
2.874146430286387e-08
4.186082140900922e-09
8.705358478476605e-08
9.52935731760534e-09
1.478654045367144e-07
1.720286530998502e-08
2.128231294415114e-07
2.733833948914275e-08
2.833520998236595e-07
3.995647712313393e-08
3.602250873516762e-07
5.483820650800448e-08
4.43070254388824e-07
7.154369037264494e-08
5.30476773576845e-07
8.963530030362518e-08
6.210965210567932e-07
1.089629209147965e-07
7.147253225979962e-07
1.295828765803109e-07
8.129529386627841e-07
1.515550958613435e-07
9.177076319180989e-07
1.749440363508378e-07
1.030352012010439e-06
1.998480547379352e-07
1.152206902126294e-06
2.263979705314191e-07
1.284650957269042e-06
2.547527454202566e-07
1.429136322809735e-06
2.850964029509402e-07
1.587197612923522e-06
3.176365803544228e-07
1.760463721600474e-06
3.526044414957849e-07
1.950672667539459e-06
3.902555373079493e-07
2.159689474765992e-06
4.308709980862206e-07
2.389528963343962e-06
4.74757946562298e-07
2.642388521501401e-06
5.222469538070998e-07
2.920700988622679e-06
5.736823382104858e-07
3.227225715670931e-06
6.29436843160977e-07
3.565115168205233e-06
6.899311989373481e-07
3.937712074803145e-06
7.556286051263755e-07
4.348503027546065e-06
8.270345524411565e-07
4.801317164424336e-06
9.04701199439437e-07
5.300361005818941e-06
9.892321574519584e-07
5.85025654853348e-06
1.081287728460667e-06
6.456082965771473e-06
1.181590643138979e-06
7.123422311818003e-06
1.290932349753234e-06
7.858409652739209e-06
1.410179907627071e-06
8.667788068076428e-06
1.54028354300515e-06
9.558969045966015e-06
1.682284929646596e-06
1.054009878745359e-05
1.837326261907657e-06
1.162013104126938e-05
2.00666019243872e-06
1.280890710120905e-05
2.191660709826066e-06
1.411724367959362e-05
2.393835037625908e-06
1.555702943995641e-05
2.614836641555019e-06
1.714133103307097e-05
2.856479439359259e-06
1.888450957540882e-05
3.120753322666804e-06
2.08023486625327e-05
3.409841112399922e-06
2.291219505085964e-05
3.726137090392404e-06
2.523311332183032e-05
4.072267280421398e-06
2.778605592395763e-05
4.451111695828152e-06
3.059405018474233e-05
4.86582883073178e-06
3.368240404470878e-05
5.319882447802655e-06
3.707893252843373e-05
5.817069632631633e-06
4.081420723901667e-05
6.361549465339319e-06
4.49218315260355e-05
6.958421210467137e-06
4.943874440893232e-05
7.614662945075857e-06
5.440555525008162e-05
8.339527755866081e-06
5.986691121164952e-05
9.144717468948047e-06
6.587259992217926e-05
1.004467418433022e-05
7.247861244215601e-05
1.105572984493667e-05
7.97481388171894e-05
1.219488649238378e-05
8.77520648523711e-05
1.3480083710371e-05
9.656845996532496e-05
1.493103873764169e-05
0.0001062831760165824
1.657016093016615e-05
0.0001169911193759269
1.84233764819561e-05
0.0001287978086818593
2.052062378025892e-05
0.0001418211908336342
2.289566127367862e-05
0.0001561936487077239
2.558454167637283e-05
0.0001720640552447681
2.862087197142715e-05
0.0001895995472078041
3.202241045648494e-05
0.0002089862851192201
3.576706978502438e-05
0.0002304274678094586
3.97666086305118e-05
0.0002541337561379806
4.38563547114909e-05
0.0002802937828860301
4.782699434651174e-05
0.0003090405653605766
5.15280485108449e-05
0.0003404403353609568
5.485898837479167e-05
0.0003745987071738339
5.754547216113069e-05
0.0004116785772887158
5.910108377631798e-05
0.0004516228785154673
5.938235801519024e-05
0.0004940227224405454
5.886684957507872e-05
0.0005387360509661357
5.821153467496327e-05
0.0005865097021008267
5.749767826130375e-05
0.0006384470388037917
5.67187938872913e-05
0.0006949923166641712
5.586907261345354e-05
0.0007565424368826719
5.494340978039754e-05
0.0008235389911570948
5.393482443535272e-05
0.000896463009619883
5.283635584419965e-05
0.0009758381418580803
5.163991526070212e-05
0.001062234484326283
5.033662358572979e-05
0.001156272405682112
4.891677055439457e-05
0.001258627190032714
4.736970178796542e-05
0.001370033814511074
4.568374309141532e-05
0.001491292035061816
4.384608991397226e-05
0.001623272944169632
4.184265943028395e-05
0.001766924584745352
3.965793736673628e-05
0.001923278613546465
3.727485940650577e-05
0.002093458914601032
3.467466167129511e-05
0.002278689519249561
3.183670814408191e-05
0.002480303689908757
2.873864587631249e-05
0.002699754118810939
2.535532372951156e-05
0.002938624937248123
2.16610258046452e-05
0.003198640813539439
1.762919513829962e-05
0.003481693225381824
1.32285942139375e-05
0.00378985990635153
8.424442400235343e-06
0.004125391136901377
3.179850733368221e-06
0.004490752783611544
-2.549724966377691e-06
0.004888656407288058
-8.832471267334928e-06
0.005322077360903029
-1.552479135702538e-05
0.005793987247801169
-2.324955031645463e-05
0.006309569955243593
-2.256442799004097e-05
0.006844380104047113
0.007192372777706364
8.599241483216666e-10
2.788154015616605e-08
3.464435688022461e-09
8.444907324656701e-08
7.886760212263566e-09
1.434430800152715e-07
1.423933412651173e-08
2.064705555290585e-07
2.263789927668458e-08
2.74953534672682e-07
3.311805239761332e-08
3.497449342334995e-07
4.552678527489582e-08
4.306615215143708e-07
5.951156024019841e-08
5.164919986137083e-07
7.468302005040013e-08
6.059250612473996e-07
9.079677733418736e-08
6.986115653148992e-07
1.078804226757438e-07
7.958692933211666e-07
1.260399012379117e-07
8.995481533556521e-07
1.4532877680329e-07
1.011063136444961e-06
1.658204749648444e-07
1.131715203964239e-06
1.876149259594112e-07
1.26285650627366e-06
2.108360686474657e-07
1.405915180121118e-06
2.35629060060159e-07
1.562404621511152e-06
2.6215860238495e-07
1.733934179275437e-06
2.906084210866566e-07
1.922222848837049e-06
3.211816512971385e-07
2.12911624455563e-06
3.54101754898726e-07
2.356608859741132e-06
3.896132901395581e-07
2.606876986260466e-06
4.279811559714599e-07
2.882333122790467e-06