/*--------------------------------*- C++ -*----------------------------------*\
| =========                 |                                                 |
| \\      /  F ield         | OpenFOAM: The Open Source CFD Toolbox           |
|  \\    /   O peration     | Version:  v1812                                 |
|   \\  /    A nd           | Web:      www.OpenFOAM.com                      |
|    \\/     M anipulation  |                                                 |
\*---------------------------------------------------------------------------*/
FoamFile
{
    version     2.0;
    format      ascii;
    class       surfaceScalarField;
    location    "0.00000067";
    object      phi;
}
// * * * * * * * * * * * * * * * * * * * * * * * * * * * * * * * * * * * * * //

dimensions      [0 3 -1 0 0 0 0];
oriented        oriented;


internalField   nonuniform List<scalar> 
87612
(
1.577335874403826e-06
2.446902667738472e-08
3.117057365614772e-06
7.365119835486024e-08
4.629136482588739e-06
1.245126888464766e-07
6.122288472132464e-06
1.784779423576339e-07
7.604127093721227e-06
2.369014817530457e-07
9.081475224342864e-06
3.00914406081018e-07
1.056086528382244e-05
3.712370268180182e-07
1.204910970357832e-05
4.481119291471982e-07
1.355370428855112e-05
5.314748522228169e-07
1.5082658256657e-05
6.215324833980211e-07
1.664388037938887e-05
7.192115565719544e-07
1.824509082126524e-05
8.25639121720057e-07
1.989396084655199e-05
9.419214534162579e-07
2.159797324227754e-05
1.069430972174354e-06
2.336430583536299e-05
1.20979169861664e-06
2.519987023429684e-05
1.364733556763144e-06
2.711139459003066e-05
1.536058923566275e-06
2.910543780635296e-05
1.72572287188003e-06
3.118838413151385e-05
1.935865685839682e-06
3.336635610912369e-05
2.168908695989476e-06
3.564517143833921e-05
2.427525967788248e-06
3.803039299253763e-05
2.714568250701441e-06
4.052732380663151e-05
3.033136759207722e-06
4.314095655033962e-05
3.386649204493381e-06
4.587586866423197e-05
3.778916572508979e-06
4.873610382783044e-05
4.214181316202603e-06
5.172505347507187e-05
4.697144089458732e-06
5.48453674156315e-05
5.232963879840673e-06
5.809888728736781e-05
5.827267075266109e-06
6.148653113952117e-05
6.486231133848191e-06
6.500817007404305e-05
7.216630463480536e-06
6.866250168746861e-05
8.025880983576839e-06
7.244692673370862e-05
8.922081990760791e-06
7.635743301270334e-05
9.914058048006743e-06
8.038847649214972e-05
1.101141528855433e-05
8.453278218411985e-05
1.222467996003258e-05
8.87809355390003e-05
1.356557143312192e-05
9.312083614124923e-05
1.504720907475281e-05
9.753743895539314e-05
1.668390005586125e-05
0.0001020126579225176
1.849105904387439e-05
0.0001065250583011098
2.048550883041382e-05
0.0001110495123413093
2.268561429980043e-05
0.0001155569011105041
2.511134222980801e-05
0.0001200138995890652
2.778429339744284e-05
0.0001243826919379313
3.072789802713323e-05
0.0001286206402088953
3.396759911804269e-05
0.0001326803497034945
3.75306047213959e-05
0.0001365104303362649
4.144535406422761e-05
0.0001400570574427947
4.574089463947802e-05
0.0001432668497136701
5.044575726812617e-05
0.0001460896077534905
5.558830471218352e-05
0.0001484826401492217
6.119537198127063e-05
0.0001504163921270531
6.72912117541726e-05
0.000151880573628679
7.389726497737563e-05
0.0001528884250937664
8.103431711193556e-05
0.0001534760168792823
8.872778457447858e-05
0.0001536982612959595
9.701135046333166e-05
0.0001536204893444697
0.0001059317792815054
0.0001533049899212401
0.0001155543673132651
0.0001528007927386105
0.0001259601486326986
0.0001521383561661125
0.0001372414794825482
0.0001513528414138808
0.0001494739849022906
0.0001504881689823263
0.0001627363564915329
0.0001495524697054635
0.0001771595894269322
0.0001485368811918329
0.0001928643245736473
0.0001474223834786949
0.0002099735577731034
0.0001462064566068522
0.0002285936328318723
0.0001448856191572812
0.0002488592477095941
0.0001434509083358615
0.0002709214787914596
0.0001418915554621131
0.0002949406368637487
0.0001402009324098318
0.0003210851409123451
0.0001383709839649954
0.0003495442783248349
0.0001363926734814486
0.0003805235483735533
0.0001342573380100454
0.000414245229531417
0.0001319564950224016
0.0004509515359976365
0.0001294817710075605
0.0004909062462148528
0.0001268250731885485
0.0005343963654990202
0.0001239787507018834
0.0005817342112867034
0.000120935755339553
0.0006332596722523319
0.0001176898224871844
0.0006893426469823828
0.0001142356692742061
0.0007503857038029527
0.0001105692060587445
0.0008168269816854789
0.000106687757247767
0.0008891433537809669
0.0001025902854844079
0.0009678538778633562
9.827761227979568e-05
0.001053523560504629
9.375265597919716e-05
0.001146767433500601
8.902065214967429e-05
0.001248255027629521
8.408916083463206e-05
0.001358715438215056
7.896824219350109e-05
0.00147894243904115
7.367066498429852e-05
0.001609800199209186
6.821046676524818e-05
0.001752231192519063
6.259571432981125e-05
0.00190726881213545
5.684648856466112e-05
0.002076019566465151
5.098699012933496e-05
0.002259697035335335
4.504474282396193e-05
0.002459623566805371
3.905385643316936e-05
0.002677235791090793
3.301930496850328e-05
0.002914134027264676
2.686409488246219e-05
0.003172110740786048
2.056110550903912e-05
0.003452978223173422
1.406193877927319e-05
0.003758785031529771
7.286537799187492e-06
0.004091769859080081
1.085408760431744e-07
0.004454381739623149
-7.664299968493839e-06
0.004849302333844539
-1.632577523443384e-05
0.005279480894865944
-2.63355185639817e-05
0.005748183478129552
-3.84117964468016e-05
0.006259043818782815
-5.311315489755882e-05
0.006815576563850765
0.007350783739702445
8.852888343040562e-09
1.561613833773342e-08
3.520597373629636e-08
4.729811295820234e-08
7.937384690537048e-08
8.034481568345147e-08
1.421476739723387e-07
1.157041152921013e-07
2.246824693563046e-07
1.543666863693826e-07
3.282426540858209e-07
1.973542213570919e-07
4.538063388048132e-07
2.456733421033046e-07
6.016868892798262e-07
3.002313786752331e-07
7.714199704099501e-07
3.617417710944475e-07
9.622699115818008e-07
4.30682542226625e-07
1.174110135908892e-06
5.073713322436722e-07
1.40759051274815e-06
5.921587448822376e-07
1.663868959560022e-06
6.856430066071319e-07
1.944468159137766e-06
7.888317725968452e-07
2.251127452857524e-06
9.03132404900822e-07
2.585831833088954e-06
1.030029176531987e-06
2.950910503051195e-06
1.17098025360328e-06
3.349045727007274e-06
1.327587647924741e-06
3.783271370407992e-06
1.501640042440228e-06
4.256981174962198e-06
1.695198891435603e-06
4.773927782829026e-06
1.910579359922175e-06
5.338199010365054e-06
2.150297023168664e-06
5.95415313828455e-06
2.417182631288428e-06
6.626334146322702e-06
2.714468196457113e-06
7.359499580468884e-06
3.045751138363268e-06
8.158678505468853e-06
3.415002391202128e-06
9.029143308832027e-06
3.82667928609708e-06
9.97637193389176e-06
4.285735254783494e-06
1.100603128124213e-05
4.797607727917848e-06
1.212396720117968e-05
5.368295213911581e-06
1.333617181827713e-05
6.004425846385546e-06
1.46487319543292e-05
6.713320847527803e-06
1.606774954252448e-05
7.503064402569325e-06
1.759922598039793e-05
8.382581610133903e-06
1.924891449751546e-05
9.361726771436473e-06
2.10221866805117e-05
1.045140777703833e-05
2.292404274961257e-05
1.166371536402198e-05
2.495918122725032e-05
1.301207059711878e-05
2.713173108498106e-05
1.451135019812983e-05
2.944479843030027e-05
1.617799169855849e-05
3.190008702525326e-05
1.803022023546297e-05
3.449745553095397e-05
2.008824579409895e-05
3.723439813744589e-05
2.237439962331752e-05
4.010529555505125e-05
2.491339597984013e-05
4.31005631012853e-05
2.773263048090148e-05
4.620575615973966e-05
3.086240605959065e-05
4.940023554344254e-05
3.433612533769463e-05
5.265520480946523e-05
3.819038479820583e-05
5.593111251838388e-05
4.246498693056352e-05
5.917601015830259e-05
4.720085962820801e-05
6.232528290106034e-05
5.243903196943381e-05
6.530238044926822e-05
5.821827443306215e-05
6.802205058888157e-05
6.457154161456016e-05
7.039788883028303e-05
7.152142673596282e-05
7.235600647119344e-05
7.907619947103859e-05
7.385196466742595e-05
8.723182637824274e-05
7.488316413119748e-05
9.598015099958776e-05
7.550330822409783e-05
0.0001053116351886027
7.580922425770199e-05
0.0001152484512796755
7.590510137264579e-05
0.0001258642715177779
7.586779749882712e-05
0.0001372787833563655
7.574034264554756e-05
0.0001496014397555683
7.555336215079667e-05
0.0001629233369863135
7.534254871431338e-05
0.0001773704028633151
7.513534732196687e-05
0.000193071525966041
7.493610897401124e-05
0.0002101727961210978
7.472828541920323e-05
0.0002288014563867197
7.450883464403922e-05
0.0002490786984847396
7.428092474507278e-05
0.00027114938869041
7.404346644899852e-05
0.0002951780951598466
7.379203619706366e-05
0.0003213365711643023
7.352464575729778e-05
0.0003498116687645761
7.323852608892521e-05
0.0003808096680419411
7.292982024869021e-05
0.0004145539353716862
7.259400678294578e-05
0.0004512873494633927
7.222572162235156e-05
0.000491274531375456
7.18186197022457e-05
0.0005348034674191197
7.136525787672963e-05
0.000582187573112213
7.085696377488463e-05
0.000633767966354207
7.028370131225627e-05
0.000689915909445014
6.96339352544929e-05
0.0007510354698607186
6.889449826489452e-05
0.0008175664186750789
6.805046631117595e-05
0.0008899873857346943
6.708504912683244e-05
0.0009688192950477156
6.597950067931635e-05
0.001054629108952146
6.471302824287207e-05
0.001148033905937059
6.326273159363808e-05
0.001249705324278767
6.160377011566922e-05
0.001360374399693026
5.97093475248333e-05
0.001480836861631984
5.755069837060945e-05
0.001611958848363417
5.509882942479896e-05
0.001754683061464881
5.230823825641795e-05
0.00191005940330383
4.914333463287595e-05
0.002079184470088702
4.556593571230219e-05
0.002263274434255919
4.153437999233791e-05
0.002463655122525337
3.700062031356673e-05
0.002681769550769567
3.193726668786978e-05
0.002919197380890366
2.63777464144188e-05
0.003177670261059503
2.029779102802057e-05
0.003459058178559822
1.36728519899832e-05
0.003765409970567811
6.478214137237151e-06
0.004098964496932827
-1.310172109337829e-06
0.004462170125869723
-9.713758231056516e-06
0.00485770591996626
-1.873784490976407e-05
0.005288504981544649
-2.834350618504412e-05
0.005757789139404833
-3.844542340730044e-05
0.006269145736005072
-4.794176946480213e-05
0.006825072909908268
0.007302841970237642
5.7378284053514e-10
1.504235549936649e-08
2.31076375649372e-09
4.556113204224103e-08
5.259706508378968e-09
7.739587293506299e-08
9.504051699150385e-09
1.114597701019209e-07
1.516540518800636e-08
1.487053328853552e-07
2.241060042984792e-08
1.901090261157287e-07
3.146658632378495e-08
2.366173562095846e-07
4.265167040704391e-08
2.890462945931755e-07
5.642998967396095e-08
3.479634518316872e-07
7.346874431648091e-08
4.136437875910203e-07
9.46554102542434e-08
4.861846663064977e-07
1.210757833653743e-07
5.657383717704578e-07
1.53964254018531e-07
6.527545359542089e-07
1.945405469269088e-07
7.482554796904709e-07
2.440969311841714e-07
8.535760206451e-07
3.041486151012692e-07
9.699774926174079e-07
3.763827181938294e-07
1.098746150509711e-06
4.626605944207734e-07
1.241309771699199e-06
5.650375410940729e-07
1.399263095769154e-06
6.858526960598242e-07
1.574383736469657e-06
8.277767251028976e-07
1.768655330878175e-06
9.937723979885027e-07
1.984301350284887e-06
1.18709777372338e-06
2.223857255553498e-06
1.411328581497334e-06
2.490237388685624e-06
1.670360454046576e-06
2.786719265815331e-06
1.968400952960368e-06
3.11696189228736e-06
2.310064801633291e-06
3.485015437425477e-06
2.70045030474555e-06
3.895349751670472e-06
3.145107446337451e-06
4.352950586324965e-06
3.650031961134013e-06
4.86337069911848e-06
4.22164917851751e-06
5.432808629005333e-06
4.866784214477746e-06
6.06818581156792e-06
5.592616022273709e-06
6.777232594773641e-06
6.406613901681603e-06
7.56858373072591e-06
7.316455827797002e-06
8.451884845322804e-06
8.329968841992646e-06
9.437894762841664e-06
9.455072489337624e-06
1.053861171667661e-05
1.069972982451423e-05
1.176741326194743e-05
1.207187384788093e-05
1.313920617476037e-05
1.357927185874342e-05
1.467059368769858e-05
1.52294253983266e-05
1.638006669587783e-05
1.702948660553306e-05
1.828818458689584e-05
1.898609433619641e-05
2.041779189265583e-05
2.110510521948441e-05
2.279438509655508e-05
2.339078580997161e-05
2.544694989041449e-05
2.584492190952499e-05
2.840826996003981e-05
2.846682626365616e-05
3.171422098356892e-05
3.125354746370583e-05
3.540366359815199e-05
3.419874101519833e-05
3.951979337907401e-05
3.728718687374323e-05
4.411241376965743e-05
4.04906604321337e-05
4.923555841105251e-05
4.376425426330504e-05
5.49446806018893e-05
4.704067495695704e-05
6.129512092091742e-05
5.022521654610615e-05
6.833688514680309e-05
5.319542389235447e-05
7.610599212480091e-05
5.581331448252426e-05
8.461393578808253e-05
5.794681829376047e-05
9.384664718835253e-05
5.949671978471375e-05
0.0001037617336976559
6.044472220261488e-05
0.0001143004488617674
6.088171709948018e-05
0.0001254272766209343
6.099232408623739e-05
0.0001371681763696107
6.093470103914486e-05
0.0001496590628026631
6.078202077803464e-05
0.0001630760172474273
6.056730772917908e-05
0.0001775851159122272
6.030466958465624e-05
0.0001933341641105556
6.001436448271694e-05
0.0002104631012230634
5.970307981333941e-05
0.0002291127410560713
5.936364925414689e-05
0.0002494181290439838
5.898985079533104e-05
0.0002715231871492131
5.858119516066045e-05
0.0002955867507945284
5.813565589209854e-05
0.0003217821104328871
5.764956698805056e-05
0.0003502977576686187
5.711984735117371e-05
0.0003813393876788417
5.654325491094935e-05
0.0004151305278119111
5.591623965292094e-05
0.0004519143647214222
5.523504637467149e-05
0.0004919557246537248
5.449566881865243e-05
0.0005355428449751677
5.369382295194456e-05
0.0005829894189789207
5.282492012969462e-05
0.0006346368691764715
5.188403191382794e-05
0.0006908567976608926
5.086584640344638e-05
0.0007520536553711016
4.976461411513388e-05
0.0008186676509633938
4.857408061663239e-05
0.0008911779192332041
4.728740253624585e-05
0.0009701059731281097
4.589704448955517e-05
0.001056019466998835
4.439466476161314e-05
0.001149536285664992
4.277096070229405e-05
0.001251329028338099
4.101543773436708e-05
0.001362129922660953
3.911623166879276e-05
0.001482736067697561
3.705985847603463e-05
0.001614015221556172
3.483048008989535e-05
0.001756912439851025
3.243328805217728e-05
0.001912456595341543
2.985129976594109e-05
0.002081766458374946
2.70635948845599e-05
0.002266062139137314
2.404636808633652e-05
0.002466672349323561
2.077226654422632e-05
0.002685043652311681
1.721625151891468e-05
0.002922753395915682
1.335623561126284e-05
0.003181530276967159
9.152164099999739e-06
0.003463262250071087
4.562389986008492e-06
0.003769999744681804
-4.585491796216939e-07
0.004103985436098462
-5.961248814677897e-06
0.004467672825504784
-1.200413798070714e-05
0.004863748809132293
-1.865818189573935e-05
0.005295159025459681
-2.601527333987625e-05
0.005765146230848969
-3.425817652196172e-05
0.006277388639187161
-4.23835710607514e-05
0.006833198304447057
0.007260458399176891
-9.80536604423755e-10
1.602289210333062e-08
-3.950404257797072e-09
4.853099969388632e-08
-8.995074574044331e-09
8.244054325111193e-08
-1.625714664356405e-08
1.187218421688412e-07
-2.593105439490767e-08
1.583792406368717e-07
-3.824391935149824e-08
2.024218910746485e-07
-5.341039699358125e-08
2.517838338502266e-07
-7.155181432613359e-08
3.071877119265008e-07
-9.258973194297186e-08
3.69001369445255e-07
-1.161699965114172e-07
4.372240521644661e-07
-1.416955269747352e-07
5.117101967689019e-07
-1.684638054149987e-07
5.92506650211067e-07
-1.958660617517665e-07
6.801567922921055e-07
-2.23470835609844e-07
7.758602535494236e-07
-2.50819857889918e-07
8.809250429267061e-07
-2.773244456519709e-07
9.96482080380236e-07
-3.023393264509578e-07
1.12376103130893e-06
-3.251627365247683e-07
1.264133181772398e-06
-3.45023534128504e-07
1.41912389337349e-06
-3.610642246891789e-07
1.590424427029691e-06
-3.723170949532054e-07
1.779908201142815e-06
-3.776725942859321e-07
1.989656849618787e-06
-3.758251486639276e-07
2.222009809932117e-06
-3.652567648876931e-07
2.479669004908764e-06
-3.442329140595736e-07
2.765695414985814e-06
-3.107309378229015e-07
3.083459916051091e-06
-2.623653636707258e-07
3.436649863273396e-06
-1.963359776854963e-07
3.829320365687981e-06
-1.093913530994954e-07
4.266005961739314e-06
2.202818825452435e-09
4.751776527195741e-06
1.427064235110062e-07
5.292305024319816e-06
3.169480498293118e-07
5.893944185250001e-06
5.303682551120957e-07
6.563812389490438e-06
7.890632373732751e-07
7.309888748464558e-06
1.099829980339343e-06
8.141118102358245e-06
1.470199406435035e-06
9.067525336744942e-06
1.90847214643362e-06
1.010033897667756e-05
2.423760685413502e-06
1.125212472296884e-05
3.02603699009722e-06
1.253692987007785e-05
3.726189454071e-06
1.397044122372483e-05
4.536061939473387e-06
1.55701942104726e-05
5.468424602507709e-06
1.735582192386333e-05
6.536924460378836e-06
1.934929203478585e-05
7.756075096383095e-06
2.157523446055101e-05
9.140449069027875e-06
2.406257591776724e-05
1.070379643044826e-05
2.684492259861971e-05
1.245912425602615e-05
2.995889315799429e-05
1.44186184046676e-05
3.344416944950721e-05
1.659317423813136e-05
3.734523754561322e-05
1.899138293785256e-05
4.171420506993265e-05
2.161682259610793e-05
4.661011875279774e-05
2.446416633571569e-05
5.209733686228396e-05
2.751487267276477e-05
5.824441458386592e-05
3.073378262590713e-05
6.511797519366111e-05
3.406761688053625e-05
7.277215787017703e-05
3.743924205239031e-05
8.124231061623411e-05
4.071083457790159e-05
9.057505466285456e-05
4.36678162482659e-05
0.0001008047520272965
4.607911876015347e-05
0.0001118891463498697
4.776868321808033e-05
0.0001237377121629849
4.86908592035205e-05
0.0001362460003841571
4.898993071430658e-05
0.0001493599912919231
4.893136530952653e-05
0.0001631345826522271
4.875629226945014e-05
0.0001777601889523201
4.856547805843166e-05
0.0001935249783215517
4.836503925932543e-05
0.0002106635400222204
4.813924864019328e-05
0.0002293385316752032
4.788364651863847e-05
0.0002496737311655781
4.760858218288629e-05
0.0002717982514849456
4.731373213181733e-05
0.0002958816008456225
4.698782945496424e-05
0.0003221080131097421
4.663036546446676e-05
0.0003506552216591131
4.62394370781609e-05
0.0003817303160651693
4.581192980332008e-05
0.0004155580350867695
4.534436169010661e-05
0.0004523819328346434
4.48330049731135e-05
0.0004924670813707132
4.427379450685647e-05
0.0005361020554414291
4.36622998622657e-05
0.0005836009136235133
4.299370284511724e-05
0.0006353054661936326
4.226277279622513e-05
0.0006915877277097902
4.14638413524416e-05
0.0007528525868148758
4.059077702891172e-05
0.0008195407152869253
3.963696131759233e-05
0.0008921317349445336
3.859526629724629e-05
0.0009711476681484522
3.745803309048158e-05
0.001057156700205596
3.621688781643915e-05
0.001150777430939043
3.486224981550244e-05
0.001252683666339045
3.338453753452813e-05
0.001363607634941928
3.177351156728489e-05
0.00148434709366481
3.001832957077012e-05
0.001615770403552693
2.810757447941491e-05
0.001758823194942377
2.60289970446673e-05
0.001914535172776295
2.376946661663731e-05
0.002084025988802979
2.131461460135605e-05
0.002268516991152598
1.864858184942275e-05
0.002469338382075498
1.575340918258162e-05
0.002687938824978526
1.260901342694182e-05
0.002925897791671328
9.186906454842598e-06
0.003184952383939261
5.457637821433112e-06
0.003466991518704502
1.391790677529628e-06
0.003774065591825712
-3.044659421706831e-06
0.004108421886197698
-7.890030573472274e-06
0.004472518196656554
-1.318846812843873e-05
0.004869047246687261
-1.89936824428302e-05
0.005300964239774074
-2.534033343803371e-05
0.005771492881844173
-3.23298165795561e-05
0.006284378122328686
-3.828209463258782e-05
0.00683915058250009
0.007222176304544302
-1.54620520697054e-09
1.756909731179592e-08
-6.22960997644758e-09
5.321440446383764e-08
-1.418507569161929e-08
9.039600896910437e-08
-2.563743374658414e-08
1.301742002233855e-07
-4.089337293816094e-08
1.736351798300717e-07
-6.031300890662029e-08
2.218415270470785e-07
-8.424773580439043e-08
2.757185607462218e-07
-1.129440861196547e-07
3.358840622467595e-07
-1.464489544539382e-07
4.025062377808966e-07
-1.845889985945198e-07
4.753640963054814e-07
-2.270689749257809e-07
5.541901731012587e-07
-2.736253956068451e-07
6.390630708951236e-07
-3.24262251714556e-07
7.30793648397685e-07
-3.790978691193319e-07
8.306958709557699e-07
-4.381782225999548e-07
9.400053964108527e-07
-5.01569960852845e-07
1.059873818633469e-06
-5.693677219530273e-07
1.191558792408061e-06
-6.416894978662596e-07
1.336454957688116e-06
-7.186685563450456e-07
1.496102951854113e-06
-8.004425184987427e-07
1.672198389184192e-06
-8.871423805975197e-07
1.866608063243922e-06
-9.788889307400192e-07
2.081403399761919e-06
-1.075812622069473e-06
2.318933501262689e-06
-1.178131006029968e-06
2.58198738887022e-06
-1.286049712876848e-06
2.873614121832302e-06
-1.399562060846971e-06
3.196972264021825e-06
-1.518451553515207e-06
3.555539355942693e-06
-1.642311671223087e-06
3.953180483396368e-06
-1.770496557936825e-06
4.394190848453529e-06
-1.902062682066871e-06
4.883342651324919e-06
-2.035697681233189e-06
5.42594002348724e-06
-2.169635578838228e-06
6.027882082854201e-06
-2.301556873724244e-06
6.695733684377548e-06
-2.428472652047539e-06
7.436804526787158e-06
-2.54659198805289e-06
8.259237438366401e-06
-2.651186059241991e-06
9.172119407933251e-06
-2.736441038897992e-06
1.018559395633468e-05
-2.795302122054595e-06
1.131098580612535e-05
-2.819316252284913e-06
1.256094400030988e-05
-2.798477897525613e-06
1.394960286896564e-05
-2.721053040301357e-06
1.549276935324852e-05
-2.573808608213688e-06
1.720857749177812e-05
-2.34230603066706e-06
1.911778945724063e-05
-2.010488550980859e-06
2.124341698086532e-05
-1.559686212658855e-06
2.361177357944684e-05
-9.679261599385612e-07
2.625316254590066e-05
-2.1050371771285e-07
2.920147071577173e-05
7.384080015097083e-07
3.249525773028486e-05
1.904929241134857e-06
3.617871630599199e-05
3.31688718083498e-06
4.030224713023263e-05
5.004373228555964e-06
4.492263270507932e-05
6.998174546155926e-06
5.010353554468917e-05
9.327955026933315e-06
5.591463410309293e-05
1.2017764428746e-05
6.242816579184962e-05
1.507665088852295e-05
6.971327141040362e-05
1.848177175850857e-05
7.783718974625313e-05
2.215740235614398e-05
8.689942406522619e-05
2.595009835509776e-05
9.701205602834722e-05
2.962385502634596e-05
0.0001082153896786198
3.290903844112359e-05
0.0001204525287482317
3.556544917702012e-05
0.0001335895896482641
3.739490507029815e-05
0.0001475305353986641
3.833275935963462e-05
0.0001621967283628944
3.855909344923849e-05
0.0001775338548627102
3.841643956465698e-05
0.0001936676322061333
3.820740200203628e-05
0.0002108725775848777
3.802665633346929e-05
0.0002295192773437952
3.784612148457861e-05
0.0002498542660144683
3.763955596191739e-05
0.0002720048170076519
3.740767486853266e-05
0.0002961134819389771
3.716239987363476e-05
0.0003223532881046547
3.689525095282959e-05
0.0003509223705799335
3.660366307436404e-05
0.0003820219039436342
3.628543048930707e-05
0.000415876267671837
3.593795254231523e-05
0.0004527294107816271
3.555836716572094e-05
0.0004928466667473286
3.514351846033814e-05
0.0005365169041468147
3.468991668749335e-05
0.0005840545153963633
3.419369964113606e-05
0.0006358016832399873
3.365058823085251e-05
0.0006921308391200754
3.305583815993835e-05
0.0007534473368857804
3.240418726211878e-05
0.0008201923661847486
3.168979674673659e-05
0.0008928461254599141
3.090618682453056e-05
0.0009719312780706674
3.004616855700385e-05
0.001058016718473127
2.91017108069213e-05
0.001151721888689125
2.806367041985746e-05
0.00125372170672611
2.692221044154754e-05
0.001364749094920245
2.566646627677331e-05
0.001485602837829582
2.428446262008277e-05
0.001617152407209393
2.276303342338862e-05
0.001760344624139075
2.108759330176545e-05
0.001916210612897921
1.924209478092352e-05
0.002085871487323826
1.720900582232638e-05
0.002270550080111197
1.496929617641081e-05
0.002471578091721419
1.250222453747147e-05
0.002690405896617465
9.785338801285228e-06
0.002928614677407517
6.799846119921121e-06
0.003187937876620627
3.523755640726225e-06
0.003470267609183701
-6.95097054806627e-08
0.003777658857171922
-4.008462114607458e-06
0.004112360838606825
-8.323059662760243e-06
0.004476832794204709
-1.304446883208322e-05
0.004873768655856587
-1.821547225076271e-05
0.005306135243192756
-2.384948954474046e-05
0.005777126899138152
-3.003111429898633e-05
0.006290559747082933
-3.451840853653737e-05
0.006843637876737644
0.007187657896007765
-2.088044846328553e-09
1.965714216566629e-08
-8.412526950817457e-09
5.953888657574468e-08
-1.915525632270067e-08
1.011387383474906e-07
-3.461807473854433e-08
1.456370186459197e-07
-5.520757750736814e-08
1.942246826047677e-07
-8.138711867845391e-08
2.480210682247225e-07
-1.135792688924162e-07
3.079107109667242e-07
-1.520300052024065e-07
3.743347985607435e-07
-1.96703900953871e-07
4.471801335357387e-07
-2.473118521474935e-07
5.259720475041046e-07
-3.034854216190072e-07
6.103637425750079e-07
-3.650230531295271e-07
7.006007024087821e-07
-4.320771283329302e-07
7.978477236018195e-07
-5.049147366566357e-07
9.035334792819516e-07
-5.837500681733518e-07
1.018840727927772e-06
-6.68847714165309e-07
1.144971464628587e-06
-7.605304504821161e-07
1.283241528726359e-06
-8.591723797660736e-07
1.435096886974682e-06
-9.651898245526242e-07
1.602120396641159e-06
-1.079033587179491e-06
1.786042151812564e-06
-1.201186730107516e-06
1.988761206171402e-06
-1.332176498700426e-06
2.212393168356592e-06
-1.472617790410623e-06
2.459374792973562e-06
-1.623192964029475e-06
2.732562562490263e-06
-1.784566440542885e-06
3.034987598347303e-06
-1.95736178441177e-06
3.369767607890789e-06
-2.1421591549603e-06
3.740336726491937e-06
-2.339467218720184e-06
4.150488547156851e-06
-2.549692069286925e-06
4.604415699020537e-06
-2.773100187372628e-06
5.106750769411546e-06
-3.009772240622024e-06
5.662612076738311e-06
-3.25954721069861e-06
6.277657052930292e-06
-3.521955562642678e-06
6.958142036322144e-06
-3.796140316981904e-06
7.710989281127988e-06
-4.080765162662356e-06
8.543862284047146e-06
-4.37389648388936e-06
9.465250729161278e-06
-4.672869174678007e-06
1.048456664712518e-05
-4.974137096324383e-06
1.161225372777186e-05
-5.273103682373752e-06
1.285991058635992e-05
-5.56393342965143e-06
1.424043261624459e-05
-5.839320780190962e-06
1.576815670378922e-05
-6.090168245978129e-06
1.745942495756688e-05
-6.305243911198787e-06
1.933286512246147e-05
-6.470836707192677e-06
2.140900977686012e-05
-6.57049206590082e-06
2.371142893815613e-05
-6.585096159301123e-06
2.626776663930234e-05
-6.49269528637015e-06
2.910906984284141e-05
-6.267248277679705e-06
3.226981072159548e-05
-5.877087242188017e-06
3.578855527050214e-05
-5.283640076018606e-06
3.970879996406394e-05
-4.441119587823223e-06
4.408011221688534e-05
-3.297688357273273e-06
4.896010431414174e-05
-1.797626227576164e-06
5.441457197339751e-05
1.125248015054144e-07
6.051801476277022e-05
2.470655106263696e-06
6.735514110564734e-05
5.286009020700263e-06
7.502183583182079e-05
8.556912644388081e-06
8.362852044153928e-05
1.227418189493532e-05
9.329478677780437e-05
1.636789725686512e-05
0.000104121674316695
2.066976734241868e-05
0.0001161506586626818
2.488343446615332e-05
0.0001293759225245311
2.861721784644403e-05
0.0001437967520183835
3.151951051636321e-05
0.0001592944356929859
3.340457744284362e-05
0.0001756487879362362
3.429167993686568e-05
0.0001927805297121369
3.443153225459207e-05
0.0002107327252671746
3.423285832763066e-05
0.0002297179512707795
3.40053394197782e-05
0.0002500817849223207
3.380210243129478e-05
0.0002722080539961613
3.358694755192606e-05
0.0002963286368183668
3.334343851283853e-05
0.0003225967971437502
3.307864482928811e-05
0.0003511871642634852
3.27904236558043e-05
0.0003823101251171276
3.247632128740785e-05
0.0004161903700402304
3.213390190178446e-05
0.0004530718301672373
3.1760607859708e-05
0.0004932199607894176
3.135362718695987e-05
0.0005369238848195657
3.090986725391047e-05
0.0005844982753294121
3.042593315707342e-05
0.000636285617336823
2.98980999950279e-05
0.0006926586722821258
2.932227701965131e-05
0.0007540231598611634
2.869396391830426e-05
0.0008208206792861081
2.800820415760299e-05
0.0008935318852206196
2.72595328312504e-05
0.0009726799493970192
2.644191592178742e-05
0.001058834335382591
2.554885593649703e-05
0.001152614948674427
2.457380249797747e-05
0.001254696760164634
2.350873252591409e-05
0.001365814164892307
2.234473589975256e-05
0.001486766834455743
2.107192054340854e-05
0.001618425222565743
1.967932520902896e-05
0.001761737219473455
1.815474694121031e-05
0.001917735191165745
1.648463024472943e-05
0.002087541604020304
1.46539813298686e-05
0.002272380729026062
1.264629390383397e-05
0.002473585779147457
1.04433996963469e-05
0.002692608790824956
8.025491189562018e-06
0.002931032585914303
5.372501504348068e-06
0.003190590866305843
2.462415068169986e-06
0.003473177695619882
-7.292367716141563e-07
0.003780850509011709
-4.229087907853754e-06
0.004115860689743066
-8.066827107137555e-06
0.004480670533403995
-1.227020353916167e-05
0.004877972032288612
-1.688096122832462e-05
0.00531074600088192
-2.190482728071585e-05
0.005782150765190543
-2.743298359746589e-05
0.006296087903399685
-3.066079470443807e-05
0.006846865687844617
0.007156997101303328
-1.717029409246051e-09
2.137417157874565e-08
-6.917675428496914e-09
6.473953260243891e-08
-1.575112262567567e-08
1.09972185549137e-07
-2.846396079290558e-08
1.583498568169987e-07
-4.538433349890891e-08
2.111450553162312e-07
-6.687596264106317e-08
2.695126973697965e-07
-9.325174678347363e-08
3.342864951134863e-07
-1.246683219333329e-07
4.057513737126711e-07
-1.610698666196162e-07
4.835816782247016e-07
-2.022481025476516e-07
5.67150283436048e-07
-2.479904716721888e-07
6.561061117031638e-07
-2.983028358914559e-07
7.509130666285331e-07
-3.534182830267295e-07
8.529631707387288e-07
-4.136098885633929e-07
9.637250848192858e-07
-4.791619581852695e-07
1.084392797551728e-06
-5.504170463553788e-07
1.21622655280012e-06
-6.277771409880933e-07
1.360601623359531e-06
-7.11697652701226e-07
1.519017398690671e-06