/*--------------------------------*- C++ -*----------------------------------*\
| =========                 |                                                 |
| \\      /  F ield         | OpenFOAM: The Open Source CFD Toolbox           |
|  \\    /   O peration     | Version:  v1812                                 |
|   \\  /    A nd           | Web:      www.OpenFOAM.com                      |
|    \\/     M anipulation  |                                                 |
\*---------------------------------------------------------------------------*/
FoamFile
{
    version     2.0;
    format      ascii;
    class       volVectorField;
    location    "0.00000067";
    object      U;
}
// * * * * * * * * * * * * * * * * * * * * * * * * * * * * * * * * * * * * * //

dimensions      [0 1 -1 0 0 0 0];


internalField   nonuniform List<vector> 
44064
(
(0.02984240444530676 2.058141563895885e-05 -1.832844033989123e-20)
(0.08914140337919059 6.094127809921418e-05 -5.513860001052454e-20)
(0.1484846975939801 9.919055804035837e-05 -9.237725817008794e-20)
(0.2079732118924676 0.0001357035114643335 -1.301247998064327e-19)
(0.2667250466174795 0.000170869660018152 -1.465833237940636e-19)
(0.3222857720161723 0.0002049062229658018 -1.62367343735031e-19)
(0.3716216025895731 0.0002378790391877095 -1.585388047987185e-19)
(0.4134066182299209 0.0002697464707772163 -1.553359246482314e-19)
(0.4489282424768788 0.0003012419935844612 -1.526594672418569e-19)
(0.4797298228559103 0.0003329215368265465 -1.503795410555211e-19)
(0.5066713481109432 0.00036480221671058 -1.484223822658494e-19)
(0.5304634456063181 0.0003971354254748571 -1.467284444839734e-19)
(0.551702042986015 0.0004301651433259074 -1.45247319145634e-19)
(0.5708748860168038 0.0004641012363021303 -1.439390743295206e-19)
(0.5883745021314938 0.0004991356710535514 -1.427720627509846e-19)
(0.6045142965373859 0.0005354508827986272 -1.417213432089128e-19)
(0.6195440379728165 0.0005732222233498792 -1.407672773739752e-19)
(0.6336631377722467 0.0006126195281064494 -1.398954804022114e-19)
(0.6470314068449133 0.0006538086042091125 -1.390936924704399e-19)
(0.659777521527198 0.0006969524356376668 -1.383509372260602e-19)
(0.6720055949083804 0.0007422120516905377 -1.376567949704491e-19)
(0.6838002516028505 0.0007897471063352719 -1.370507282510375e-19)
(0.6952305473281383 0.0008397162120905463 -1.176365941026534e-19)
(0.7063530062739991 0.0008922770534518528 -9.842900754511147e-20)
(0.7172139870617857 0.0009475862937543512 -7.934474996496666e-20)
(0.7278515369308085 0.001005799282011004 -7.85612442142155e-20)
(0.7382968539390053 0.001067069558690351 -7.783000501220283e-20)
(0.7485754467285641 0.001131548154030392 -7.708419932178128e-20)
(0.7587080586126933 0.001199382668107855 -7.631758975127743e-20)
(0.7687114057341086 0.0012707161178524 -7.554129086054956e-20)
(0.7785987661278967 0.001345685532765523 -7.475073233483028e-20)
(0.7883804465705782 0.001424420277860643 -7.397634342890096e-20)
(0.7980641462839598 0.00150704008035419 -7.326515437179019e-20)
(0.8076552305412735 0.001593652735817868 -7.277220421887137e-20)
(0.8171569233970538 0.001684351470241049 -7.26134584039183e-20)
(0.8265704283971239 0.00177921193594789 -7.286283700299614e-20)
(0.8358949916255879 0.001878288819603031 -7.341437056579277e-20)
(0.8451279358805865 0.001981612034655323 -7.382979116472665e-20)
(0.8542647202121774 0.002089182449392084 -7.34914650606829e-20)
(0.8632991124171931 0.002200967052522059 -7.198171233575138e-20)
(0.8722235874137336 0.002316893372766451 2.060935372970024e-20)
(0.8810300419527716 0.002436842876057966 1.193671768493836e-19)
(0.8897107727785132 0.002560643106736414 2.240906748213918e-19)
(0.8982592985948099 0.002688058762638547 3.354943218100196e-19)
(0.906669924765695 0.00281878278997363 4.549279967724566e-19)
(0.9149339942788575 0.002952429880824066 5.857251464748845e-19)
(0.9230300100412036 0.00308853930028706 5.067061125178781e-19)
(0.9309058220315575 0.00322661103477979 4.25937735352364e-19)
(0.9384574598434129 0.003366204304780526 3.467357706660505e-19)
(0.9455252435522887 0.003506928001262616 2.708649599087281e-19)
(0.9519468765277654 0.003647676014479852 2.010133563657961e-19)
(0.9576942794531925 0.003785903753499495 1.366702291471776e-19)
(0.9630055320698249 0.003923321640405418 7.493998565299741e-20)
(0.9680673140572149 0.004060290180506819 1.307321486341108e-20)
(0.972864604696171 0.004192575381315683 -4.980360484684409e-20)
(0.9773846209202681 0.004319382767254636 -1.150580425000548e-19)
(0.981615400040451 0.00443949996157778 -1.849287072396443e-19)
(0.985543372234691 0.004551359316004098 -2.651521133760968e-19)
(0.9891514687762726 0.004653349977155469 -3.551893158994483e-19)
(0.9924182676758927 0.004744030095962151 -4.548430087686708e-19)
(0.9953175666989029 0.004822471532920238 -5.60144590083233e-19)
(0.9978169558502323 0.004888722893104454 -6.545444175473303e-19)
(0.9998743687573631 0.004942032106178773 -6.72166769825639e-19)
(1.001441365930066 0.004974897585932773 -5.399148758243494e-19)
(1.002478476726226 0.004950362992043428 2.674916809498103e-20)
(1.002974918850259 0.005063580109875189 2.230818940220996e-18)
(1.003358558629271 0.005018599776662751 1.113815789783889e-17)
(1.00361542522815 0.005002076883359001 6.218707189741359e-18)
(1.003523966917461 0.004964120711175165 3.155723252277167e-18)
(1.00306562160335 0.004883667889869124 8.742499907929201e-19)
(1.002479730351866 0.004807309698522085 -1.414747230675338e-18)
(1.002312853143698 0.004749639284563765 -2.13181341728756e-17)
(1.002587297786876 0.004765583994599152 -5.846746940450945e-18)
(1.002705628632142 0.004703755509146437 -5.547004958895786e-19)
(1.002534491524283 0.004565817080943355 2.337278159908601e-17)
(1.002461406775569 0.004511855032836003 7.861979027654819e-18)
(1.002443834842579 0.004444409618606564 1.067286506338478e-17)
(1.002396151532822 0.004346927087684603 1.559139061704251e-17)
(1.002340654468499 0.004251679175301403 -1.886226868671203e-17)
(1.002284507931654 0.004151980776123236 1.812889555241011e-18)
(1.002223924791952 0.004043640082351047 1.146801157929762e-17)
(1.002159359254153 0.003928644373074519 1.312301385780638e-17)
(1.002091000677658 0.003806641756009882 6.220520636080249e-17)
(1.002018838424336 0.003677424096784833 6.078681288389359e-17)
(1.001942949248665 0.003540990556615756 4.886632336386824e-17)
(1.001863450978931 0.003397363299084992 9.603923042131267e-17)
(1.001780507200908 0.003246669965688407 1.828257203693389e-16)
(1.001694198495795 0.003088781423078027 2.525303645538935e-16)
(1.001605730123328 0.002925256891596882 2.61850072558497e-16)
(1.001509399238559 0.002755370998391713 2.862883835181557e-16)
(1.001398741811268 0.002576151733660307 2.962869704034572e-16)
(1.001286896582221 0.002393560939703589 3.275499079930932e-16)
(1.001174059664968 0.00220541430096109 3.902414372074172e-16)
(1.001060550946124 0.00201266402796563 3.314926197862991e-16)
(1.000946626910956 0.001816086230616182 3.499777498400289e-16)
(1.000832473313398 0.001616926724601636 2.496307310306029e-16)
(1.000716957552781 0.00141494120007459 2.065553221370405e-16)
(1.000603189444626 0.00120173164159206 1.748495404018801e-16)
(1.000557847371381 0.001011002313759489 1.512043823171898e-16)
(1.000519062566629 0.0008025895418585181 1.500577645783569e-16)
(1.000487843259884 0.0005884172188201083 1.332321177213793e-16)
(1.000465840562843 0.0003662436207157295 1.119778320869257e-16)
(1.000455220289201 0.0001316813781015007 1.079269557181017e-16)
(1.000459035552904 -0.0001218643948758128 1.003168045736148e-16)
(1.000481649504851 -0.0004044866950637489 3.160017341607755e-17)
(1.000530345059972 -0.0007229312137648573 4.636567998931451e-17)
(1.000599927424637 -0.0009378591915611787 2.229957512091806e-17)
(0.9953266112583093 -0.00126773992937202 3.828176923410347e-18)
(0.02307922033540924 2.592627058860064e-08 5.802917524133882e-20)
(0.06939988905163806 4.051390252582298e-07 1.755680304788388e-19)
(0.116190081634865 1.172519834751998e-06 2.71604335054088e-19)
(0.1636117138044891 2.346550742323999e-06 3.701849694756297e-19)
(0.2113505006104171 3.92874306598091e-06 4.700076652296333e-19)
(0.2581518720896863 5.908035037233611e-06 5.67912615059775e-19)
(0.3018641969057995 8.233325235026613e-06 6.590614079879147e-19)
(0.3405926655189807 1.083113700909584e-05 7.385693571794096e-19)
(0.3738171667479609 1.364775413228447e-05 8.092183026905348e-19)
(0.4025563060040471 1.670045188242108e-05 8.566369489171702e-19)
(0.4278878378654449 2.003510126089592e-05 9.003420211393534e-19)
(0.4503901304771632 2.365221096131011e-05 9.611009706533768e-19)
(0.470538412481539 2.757396285144904e-05 1.015012571529153e-18)
(0.4887395383338847 3.183033823386333e-05 1.06356510930338e-18)
(0.5053357614527634 3.645568681392909e-05 1.10775713662442e-18)
(0.520610315582956 4.148884591086154e-05 1.148276061586024e-18)
(0.5347954194340345 4.69733768103635e-05 1.1855355122881e-18)
(0.5480807586415717 5.295766573835369e-05 1.233536563009527e-18)
(0.560621274208276 5.949512834981351e-05 1.291480708084049e-18)
(0.5725438143729998 6.664455020288246e-05 1.346911778387303e-18)
(0.5839526008012106 7.447052677012554e-05 1.389088458411808e-18)
(0.5949336299205931 8.304397157031878e-05 1.43078276347735e-18)
(0.6055581832851079 9.24426534605387e-05 1.472002028564391e-18)
(0.6158856207856914 0.0001027516339015876 1.512816513433521e-18)
(0.625965610070087 0.0001140632224524813 1.553371459621652e-18)
(0.6358399191680409 0.0001264760246344913 1.593809878546992e-18)
(0.6455438712380216 0.0001400959716100231 1.634199250383801e-18)
(0.6551075279752033 0.0001550368605195307 1.674541445335246e-18)
(0.6645566497798208 0.0001714228600830585 1.714882429732977e-18)
(0.6739134780874556 0.0001893899832743072 1.775208109801958e-18)
(0.6831973767392387 0.0002090867583952183 1.836266445104162e-18)
(0.6924253593432499 0.0002306750679891406 1.899280704831863e-18)
(0.7016125226618173 0.0002543310913828803 1.925321164314981e-18)
(0.7107724009577701 0.0002802462727449953 1.993702009907408e-18)
(0.7199172522458417 0.0003086282865508598 2.064822711128496e-18)
(0.7290582841664338 0.000339701972488709 2.139502183073493e-18)
(0.738205824597541 0.0003737101982512102 2.219229930212731e-18)
(0.7473694402146226 0.0004109146804598032 2.264487496056283e-18)
(0.7565580054018742 0.0004515969868711519 2.316884552310021e-18)
(0.76577972513291 0.0004960595435738667 2.377494095839453e-18)
(0.7750421204597094 0.0005446204550773375 2.361282456755144e-18)
(0.7843519969864389 0.0005976117302337556 2.352258353882881e-18)
(0.7937153835005725 0.0006553725881978876 2.350446641940192e-18)
(0.8031373779557722 0.0007182492565810726 2.355638497925393e-18)
(0.8126218478569914 0.000786595080964754 2.367624583771797e-18)
(0.8221709826687573 0.0008607689543276081 2.386400303605719e-18)
(0.8317848116199349 0.0009411290670722953 2.412362384501204e-18)
(0.8414609996253091 0.00102801412171933 2.448434823703081e-18)
(0.8511954641252145 0.001121698929832507 2.496469173871759e-18)
(0.8609843848724372 0.001222317040758441 2.561763248153381e-18)
(0.8708274948158401 0.001329784222334974 2.412912371363583e-18)
(0.8807304675479762 0.001443837092133016 2.27284175524305e-18)
(0.8907006155738616 0.001564193908421724 2.14390804173424e-18)
(0.9007269059865214 0.001690500106804877 2.036261603870353e-18)
(0.9107662446921193 0.001822437581883814 1.966555131545966e-18)
(0.9207505218487656 0.001959380896673692 1.976573510136269e-18)
(0.9305942326504864 0.00210031031475085 1.906054765881033e-18)
(0.9402092923811967 0.002244013726422853 2.542386773941458e-18)
(0.9494846709364739 0.002389228370119524 3.194360675030145e-18)
(0.9582363850614924 0.002534535454792985 4.072023503724226e-18)
(0.966211331126834 0.002677535224217173 5.200698243598978e-18)
(0.9732459430563181 0.00281281423158979 6.30254532308869e-18)
(0.9796147122369865 0.002940778753313373 6.483493914076699e-18)
(0.985630099017893 0.003065112456787765 6.649810070436653e-18)
(0.991244782780585 0.003187236085490003 7.425562514459507e-18)
(0.9963076043451976 0.003250301661348561 9.54742549921283e-18)
(1.000565311825339 0.003340999709070113 8.771955999937352e-18)
(1.003901183224763 0.003397848040168283 7.035997978873827e-18)
(1.006233083922715 0.003445643357465275 4.896438657077495e-18)
(1.007496775840779 0.003511844860781986 4.39487466932575e-18)
(1.008072116460691 0.003456385447584461 2.214135379230673e-17)
(1.007758439525965 0.003489896631877876 -3.05458620755248e-17)
(1.006769510725233 0.003445064162591991 -2.407027757736904e-17)
(1.006688940267714 0.003422314443271337 -3.683140491669928e-17)
(1.007004820242916 0.00340488979364161 -3.059348536181754e-17)
(1.006842396593363 0.003404283717083837 -2.230601833821776e-17)
(1.006657154791123 0.003374136105873593 -1.093457446609525e-17)
(1.006554002065243 0.003349435354330114 -6.032229471743795e-17)
(1.006428757698578 0.003326254029316404 -1.200882094684596e-16)
(1.006292035408729 0.003299352513447667 -8.269314655093717e-17)
(1.006150062349209 0.003268523439974391 -4.31968545503084e-17)
(1.006000820980783 0.003234770006251087 -9.78883131728263e-18)
(1.005843968398595 0.00319708911177669 7.966679853925877e-17)
(1.005679821787611 0.003154846790963474 2.221177911742064e-16)
(1.005508615233093 0.003107470413295447 3.547151206202345e-16)
(1.005330719543516 0.0030542277195075 6.34163485116627e-16)
(1.005146661132259 0.002994452615977313 9.910424299763462e-16)
(1.004957069613873 0.00292695118265234 1.305680795052104e-15)
(1.004762437845202 0.002850831666638836 1.660544261865741e-15)
(1.004574511668458 0.002765942903460193 1.958157115767883e-15)
(1.004402016471814 0.002670602789948853 2.086524150775345e-15)
(1.004225191789601 0.002563922781986022 2.239472825324243e-15)
(1.004044809574138 0.002443699397866653 2.275248450131756e-15)
(1.003861900500874 0.00230951413593816 2.037740148101976e-15)
(1.003677599748725 0.002159857776712027 1.867587502358093e-15)
(1.003493263875672 0.001993500271300479 1.481126067140618e-15)
(1.003310036231472 0.001812680415352535 1.209417320135111e-15)
(1.003131000525741 0.00160965354932476 9.126825861223759e-16)
(1.002978794350863 0.001384462815066934 6.778623397009733e-16)
(1.002845282908827 0.001137607070739767 6.363882358462341e-16)
(1.002734349668612 0.0008760071269457647 6.411650657466235e-16)
(1.00265160699198 0.000593959640838156 7.01253712405147e-16)
(1.002604376858937 0.0002911188080288639 6.548512812774666e-16)
(1.002602391337402 -3.265334270052939e-05 6.402979880021661e-16)
(1.002660191168282 -0.0003813690496898619 4.18506074209872e-16)
(1.002792983038107 -0.0007558689072374396 2.54922401285584e-16)
(1.002950366812096 -0.0008442001715626524 9.899588937000193e-17)
(0.9899371169776841 -0.002522246610712444 -2.252976109478074e-17)
(0.02125638342373694 1.088805227834099e-08 6.407516269821701e-20)
(0.06392067779034674 1.802375585282175e-07 1.666930727809163e-19)
(0.1070241536190454 5.303171814667768e-07 2.722425071344569e-19)
(0.1507447137243779 1.074703017863154e-06 3.54632905876982e-19)
(0.1948932025343302 1.821117944553776e-06 4.418195775858261e-19)
(0.2385161744305385 2.77414448900185e-06 5.250172211195703e-19)
(0.2798007045946989 3.91859376697169e-06 6.280668221548016e-19)
(0.3168999531996575 5.218225483063819e-06 7.17294996824958e-19)
(0.3490236868986367 6.628574111358235e-06 7.962299001573563e-19)
(0.3768326237859572 8.149330901355857e-06 8.65111350595985e-19)
(0.4013152325183839 9.792316415743005e-06 9.259399087421907e-19)
(0.4230836610064219 1.156682620000838e-05 9.801064780670892e-19)
(0.4425828641649005 1.347984198235655e-05 1.028679196193068e-18)
(0.4601911717254186 1.554359753371313e-05 1.072594406646659e-18)
(0.4762305295005979 1.777326752022435e-05 1.112662012999122e-18)
(0.4909704888157612 2.018644266851884e-05 1.149571558414703e-18)
(0.504634024057061 2.280313157407893e-05 1.183905444623473e-18)
(0.5174043343870252 2.564584767641924e-05 1.216154199240841e-18)
(0.5294314916725444 2.873977126551647e-05 1.246724365438549e-18)
(0.5408383934090851 3.211300852967078e-05 1.275942892197851e-18)
(0.5517259331513235 3.579694253259947e-05 1.304079638396097e-18)
(0.5621775746692229 3.98266384355347e-05 1.331341105830039e-18)
(0.5722636871917745 4.424091508846479e-05 1.345031038637627e-18)
(0.5820461219009933 4.908072111591944e-05 1.358049707983025e-18)
(0.5915836045901581 5.438510757749599e-05 1.393705905754556e-18)
(0.6009385853768492 6.020104068975202e-05 1.426505451330099e-18)
(0.6101597776473514 6.657774183520025e-05 1.479324574386821e-18)
(0.6192709815008824 7.356387624190742e-05 1.528639203531802e-18)
(0.628287121569055 8.121745529042035e-05 1.598538529344936e-18)
(0.63722124286927 8.960470791576017e-05 1.667218147179605e-18)
(0.6460848006721682 9.879845174091e-05 1.735924580179881e-18)
(0.6548878985365922 0.0001088795237687414 1.797452140217438e-18)
(0.6636394843466638 0.0001199379836159974 1.830720729629746e-18)
(0.6723475122510962 0.0001320742007490657 1.857029404513023e-18)
(0.6810190769982999 0.0001454000431800696 1.883899271554427e-18)
(0.6896605261580971 0.0001600401960595191 1.910935915866249e-18)
(0.6982775549793684 0.0001761338876921126 1.937691309655113e-18)
(0.7068752882773963 0.0001938379849858655 1.96368817433839e-18)
(0.7154583537426655 0.000213330782089434 1.988437837445552e-18)
(0.7240309508726591 0.0002347948415329922 2.011432741400279e-18)
(0.7326101245449494 0.0002584466669386578 2.032187041020382e-18)
(0.741223517805503 0.0002845455226416042 2.050625624926302e-18)
(0.7498928728825635 0.0003133620380006052 2.067812198245988e-18)
(0.75863413548156 0.0003452025956309535 2.08574284228894e-18)
(0.76745927038904 0.0003804136428106241 2.110175415572879e-18)
(0.7763775992328059 0.0004193837726402869 2.154231065350344e-18)
(0.7853967096294223 0.0004625487116960537 2.123807634951235e-18)
(0.7945230494090658 0.0005103912542074022 1.912712008074073e-18)
(0.8037624168473119 0.0005634267115704533 1.818835484731979e-18)
(0.8131206353623903 0.0006221971770379542 1.734201396473134e-18)
(0.8226045888687569 0.0006872589486802664 1.651852408593154e-18)
(0.8322236468074761 0.0007591969417717894 1.567135216667432e-18)
(0.8419914712315608 0.0008386350426387981 1.475387158367736e-18)
(0.8519280136475845 0.0009262278427651009 1.370804666331125e-18)
(0.8620609319861331 0.001022623679681886 1.245674800348773e-18)
(0.8724240082464282 0.001128419536759794 1.091594666157795e-18)
(0.883046737932302 0.001244194763762036 1.518542381221283e-18)
(0.8939243505850479 0.001370289752774558 1.956751082069749e-18)
(0.9050011052803216 0.001506696170315767 1.66801877546072e-18)
(0.9161740866197493 0.001652958343953381 2.0483291258603e-18)
(0.9273007723170482 0.001807717052095214 2.343341219048054e-18)
(0.9382180583539999 0.001968446952657006 2.459386845906248e-18)
(0.9487667999934826 0.002132260607197517 3.320827499805329e-18)
(0.9588037133019996 0.002296693043726979 4.045511998327635e-18)
(0.9681266063401729 0.002459625915832638 4.69098817829752e-18)
(0.9765167466873886 0.002613306972278703 6.701791234602413e-18)
(0.9840998921327804 0.002758661058412239 9.169798125394853e-18)
(0.9911411089794414 0.002892754385015574 1.191822103885616e-17)
(0.9975430680851221 0.003008498915055127 1.585415495398402e-17)
(1.00293383773786 0.003096336656690158 1.568715626150205e-17)
(1.006789829562641 0.003191926404066763 8.292326764789318e-18)
(1.008947331142253 0.003232605575538631 1.075655840746385e-18)
(1.009521664506813 0.003162292987614228 2.227056459264552e-18)
(1.009203605410628 0.003167893318947529 -6.416632916073835e-18)
(1.008789436761689 0.003177696012108247 -3.334065482914022e-17)
(1.008917958083031 0.003117756034799679 -1.045410182606992e-17)
(1.008838654116446 0.003084063539995326 2.479003649720055e-17)
(1.008747716357217 0.003052749241757666 -1.891596840021611e-17)
(1.008666302845508 0.00301564839836245 -1.142239429392724e-16)
(1.00857535637099 0.002973835561304134 -8.260004257059484e-17)
(1.008477974883405 0.002929065805290567 -4.122337228954717e-17)
(1.0083738900203 0.002880946301605966 -6.967069866632943e-17)
(1.008262736441607 0.002828708292030715 9.495812251748625e-18)
(1.008144276058733 0.002772191803092305 9.386395660008231e-17)
(1.008018319970124 0.002711124066427064 1.620137926712552e-16)
(1.007884672322213 0.002645069526703714 3.413455128743003e-16)
(1.007743188896174 0.002573763818792681 5.868825579223671e-16)
(1.007593740719792 0.0024967271155123 7.969740174589592e-16)
(1.007436241809545 0.002412781055018171 1.025193781415649e-15)
(1.007270942628119 0.002322458574087622 1.227412996273122e-15)
(1.007097830217262 0.00222608401888919 1.148197384115961e-15)
(1.006916954732766 0.002121644102865074 1.163823651328324e-15)
(1.006728917561615 0.002008840551514837 1.006013231386345e-15)
(1.006534701957451 0.001887400577199099 5.99523115488448e-16)
(1.006335616932301 0.001756076867255607 3.300515313833313e-16)
(1.00613356249288 0.001612618890731606 -8.027392058766618e-17)
(1.005930700901401 0.001459157585332444 -3.217645794459622e-16)
(1.005726676729892 0.001292275947199586 -3.985536727936822e-16)
(1.005525291842719 0.001107084188373862 -3.459578576514418e-16)
(1.005343399360987 0.0009069399497683672 1.084950560019658e-16)
(1.005186244774833 0.0006916773155487823 6.345760410086578e-16)
(1.005061501858228 0.000454957326566644 1.07247741230049e-15)
(1.004979131395175 0.0001967046379651323 1.319652596146994e-15)
(1.004950719741263 -8.427531215710571e-05 1.40520492248252e-15)
(1.004988669791519 -0.0004027117196503293 1.056645414404656e-15)
(1.005119975088056 -0.0008235741664280171 5.550560095518291e-16)
(1.004973684368931 4.826111054876379e-05 1.675773612051742e-16)
(0.9849547097853187 -0.004522892271665899 -1.9201222966844e-17)
(0.01979460988530489 8.245299345569009e-09 8.899919283299198e-20)
(0.05952510812519655 1.369032599891557e-07 2.676394385032771e-19)
(0.09966860725378587 4.030405638338488e-07 4.481501988784723e-19)
(0.1404158994877647 8.171192865402215e-07 6.314030566935928e-19)
(0.1816836391117953 1.385210879029263e-06 8.170483750848874e-19)
(0.222796821981624 2.111402469622654e-06 1.002083889480654e-18)
(0.2623183523602955 2.985127379621383e-06 1.180078552621474e-18)
(0.2985437524342879 3.977607025894191e-06 1.343380170460115e-18)
(0.3304551857320607 5.053402604810419e-06 1.487402760342515e-18)
(0.3582267278421644 6.202295096380159e-06 1.612912277637466e-18)
(0.3827002258120009 7.428975096243924e-06 1.723680424425082e-18)
(0.4045475775451967 8.744864209591569e-06 1.822708747784643e-18)
(0.4241798824573026 1.015043338858624e-05 1.911816989898994e-18)
(0.4419443102278315 1.165256847922282e-05 1.992533161787717e-18)
(0.4581422995383642 1.326076556484453e-05 2.066180394132658e-18)
(0.4730310058074538 1.498610136397403e-05 2.133884246057468e-18)
(0.4868260886864396 1.68411926602864e-05 2.19659346087413e-18)
(0.4997063188909189 1.88402479002933e-05 2.255104927481021e-18)
(0.5118188731932616 2.099913187791534e-05 2.31009467175958e-18)
(0.5232846724940725 2.333551600602127e-05 2.362149604540948e-18)
(0.5342037000836801 2.586913900541262e-05 2.428183916384013e-18)
(0.5446606939658989 2.86219483703082e-05 2.491668519533422e-18)
(0.5547319753145012 3.161716320766453e-05 2.553255270487758e-18)
(0.5644945073657404 3.487697645862734e-05 2.613666480934681e-18)
(0.5740358490172438 3.843022738219433e-05 2.673688614828994e-18)
(0.5834143354942856 4.230565189820577e-05 2.705595001653678e-18)
(0.5926513177479471 4.652633755450499e-05 2.738183425691398e-18)
(0.6017652006005073 5.112755804844633e-05 2.771454979906022e-18)
(0.6107719403567115 5.614761933206127e-05 2.805431126329749e-18)
(0.619685451006983 6.162755760919166e-05 2.840166124115802e-18)
(0.6285179359191643 6.76121478337128e-05 2.875776785908603e-18)
(0.6372801599922078 7.415044378577461e-05 2.885894146132013e-18)
(0.6459816738731188 8.129615688968123e-05 2.897315160871491e-18)
(0.6546309993687828 8.910807855447801e-05 2.909516151784789e-18)
(0.6632357833529011 9.765055908204717e-05 2.921616048159479e-18)
(0.6718029255780241 0.00010699403679694 2.930432937905895e-18)
(0.6803386849717529 0.0001172156266143903 2.947804704808636e-18)
(0.6888487678329018 0.0001283996889344743 2.917637122092975e-18)
(0.6973384007006115 0.0001406380803615998 2.896263081538487e-18)
(0.7058123900182381 0.0001540302576383818 2.872356364508288e-18)
(0.7142751703544897 0.0001686900953890719 2.848688654477439e-18)
(0.7227308315417287 0.0001847488703655444 2.826437533255578e-18)
(0.7311831279730973 0.0002023638188300074 2.806260808169291e-18)
(0.7396354902067415 0.0002217198612221737 2.788659610150481e-18)
(0.7480910430288321 0.0002430324941129854 2.738174581070853e-18)
(0.7565526320634846 0.0002665542326970472 2.661939798412073e-18)
(0.7650228629453751 0.0002925697908324357 2.560301074868599e-18)
(0.77351055526628 0.0003213814068828281 2.446294231748822e-18)
(0.782047188851534 0.0003533728638855397 2.441083255817745e-18)
(0.790673470983878 0.0003890016441789932 2.428469463297421e-18)
(0.7994174571649594 0.0004287584992288486 2.43710954350429e-18)
(0.8082984670606113 0.0004732043249243264 2.468368346887933e-18)
(0.8173304838157721 0.000522960607628527 2.190915192739279e-18)
(0.826525144350312 0.0005786957673802466 1.852163125615363e-18)
(0.8358941103676412 0.0006411420807120341 1.429153642402632e-18)
(0.8454505281041802 0.0007111361925765368 9.931370805087757e-19)
(0.8552094400705857 0.0007896511077455065 5.134817763779237e-19)
(0.8651873567838897 0.0008777892182558685 5.689177186275703e-19)
(0.8754016896474841 0.0009767111121343883 5.131417569801371e-19)
(0.8858706359349061 0.001087496595002779 1.022511308455534e-18)
(0.8966126805992454 0.001210958197375922 1.233410233501915e-18)
(0.9076412036360455 0.001347497577840427 2.024765541258436e-18)
(0.9189422003315248 0.001497091570516395 2.655944773337305e-18)
(0.9304136758060987 0.001658585122893779 3.656033006467595e-18)
(0.9418670989679682 0.001829446899759166 4.24330981555069e-18)
(0.9530613884268164 0.002005675413497408 4.730752755001013e-18)
(0.9637549178472715 0.002182631516436222 5.950641863136898e-18)
(0.9736954501376325 0.002355618022887855 4.790293481316154e-18)
(0.9826482620212996 0.002516815274449153 7.989905190231918e-18)
(0.9908001964956034 0.00266483280510699 8.009420198312175e-18)
(0.9982273997720229 0.002802791713649698 6.542639004182123e-18)
(1.004368657984652 0.00290807803441607 1.429786545888131e-17)
(1.008491074089325 0.002984963820374507 1.536408684706549e-17)
(1.010279082456663 0.003003771188396328 2.614112803758855e-17)
(1.010515866841042 0.00297902150204341 -2.079740389887056e-17)
(1.01017376078139 0.002963013461691119 1.833477472839547e-17)
(1.010117661270654 0.002928826352629603 7.431635309935839e-17)
(1.010038020001973 0.002900309949985688 2.005798413152562e-17)
(1.009950215071103 0.002867127185655284 -7.591375226636954e-17)
(1.009856744550184 0.002830079689470634 -6.85334413398483e-17)
(1.009758254528106 0.00279037550091708 -4.551286507681721e-17)
(1.009654028453685 0.002746959716926305 -1.094977816767878e-16)
(1.009543320699553 0.002699335907111103 -8.049852939938129e-17)
(1.009426107548325 0.002647357173854515 -1.296350240362651e-16)
(1.009302223657881 0.002590644409114202 -2.241524129166775e-16)
(1.009171599662861 0.002528699723420668 -2.551724066592115e-16)
(1.00903427574378 0.002461158158777117 -2.482019407952176e-16)
(1.008890312497358 0.002387732301359173 -3.17480868804415e-16)
(1.008739751109605 0.002307359655446717 -3.41109230321992e-16)
(1.008583053875148 0.002219875282499622 -4.681988975625708e-16)
(1.008420511527307 0.002125260522547838 -8.06950522319871e-16)
(1.00825234810723 0.002021984447937098 -1.001095291694653e-15)
(1.008079281564431 0.001909904684452809 -1.327557367097799e-15)
(1.007902255752208 0.001788499855856202 -1.821372125221345e-15)
(1.007722415569099 0.001657121708711669 -2.096947770597818e-15)
(1.007541361505478 0.001513570302935797 -2.344370344044086e-15)
(1.007360965890772 0.001359259396935878 -2.38219187965281e-15)
(1.007184921963394 0.001192683711431817 -2.146440418917048e-15)
(1.007022423758918 0.001008933241277883 -1.664368921323589e-15)
(1.006876676165085 0.0008108568313628437 -7.242091699617504e-16)
(1.006750954517174 0.0005964717047123864 3.507867241969878e-16)
(1.006651399374881 0.0003612548220036365 1.194068514383143e-15)
(1.00658581378922 0.0001054791567917214 1.803595863967674e-15)
(1.006564138183141 -0.0001655030223912523 1.988884558060925e-15)
(1.006606720128599 -0.0004682108376739088 1.536153297827434e-15)
(1.006711516346667 -0.001171639716133554 7.764030890054185e-16)
(1.006002315862105 0.001234849609624239 1.721978723394556e-16)
(0.9802292135603914 -0.006916467506515716 -4.339225412082528e-17)
(0.0189937604504277 6.40114054459358e-09 8.458774623358645e-20)
(0.05711672587985304 1.062626817471387e-07 2.543833326023954e-19)
(0.09563741417574798 3.128268456763809e-07 4.259785153064886e-19)
(0.1347489356084523 6.342257550683124e-07 6.002502965844758e-19)
(0.1744080835523956 1.075570412749037e-06 7.770237433911855e-19)
(0.2140518493576297 1.641882891533675e-06 9.538073282290245e-19)
(0.2524088799476966 2.328776789279725e-06 1.124944862961325e-18)
(0.287867751390691 3.117624146190028e-06 1.283250656994992e-18)
(0.3193431226259181 3.983111034269246e-06 1.423869893443007e-18)
(0.3468009319813107 4.913102149843839e-06 1.546648576847571e-18)
(0.3710094583697057 5.909904358256179e-06 1.655060905640656e-18)
(0.3926584168616954 6.983084028099053e-06 1.752280847849371e-18)
(0.4121379990145122 8.131331502209711e-06 1.840218755739896e-18)
(0.4297775667270131 9.359641521053256e-06 1.920505333855769e-18)
(0.4458666099039204 1.067530840161324e-05 1.980599113809443e-18)
(0.4606548031047999 1.208690548959176e-05 2.036378741661765e-18)
(0.4743533047895563 1.360425583046322e-05 2.088240964475783e-18)
(0.4871382670607838 1.523845481153354e-05 2.136592512143208e-18)
(0.4991553831622748 1.700187492676866e-05 2.181680109379057e-18)
(0.5105247175357553 1.890823274990593e-05 2.224093042017113e-18)
(0.5213456620809263 2.097274981576402e-05 2.258964242710532e-18)
(0.5317023505489 2.321222143054972e-05 2.287844695754946e-18)