/*--------------------------------*- C++ -*----------------------------------*\
| =========                 |                                                 |
| \\      /  F ield         | OpenFOAM: The Open Source CFD Toolbox           |
|  \\    /   O peration     | Version:  v1812                                 |
|   \\  /    A nd           | Web:      www.OpenFOAM.com                      |
|    \\/     M anipulation  |                                                 |
\*---------------------------------------------------------------------------*/
FoamFile
{
    version     2.0;
    format      ascii;
    class       volVectorField;
    location    "0.00000067";
    object      U;
}
// * * * * * * * * * * * * * * * * * * * * * * * * * * * * * * * * * * * * * //

dimensions      [0 1 -1 0 0 0 0];


internalField   nonuniform List<vector> 
44064
(
(0.02065777772447037 2.073898300513079e-05 2.294690086320455e-20)
(0.06151270821337452 6.192482064108364e-05 6.902976853216283e-20)
(0.1022310753855837 0.0001020699839333963 1.15674330430296e-19)
(0.1430773094431676 0.0001415217291807317 1.41682315471467e-19)
(0.1841530034622318 0.0001805832482498928 1.681939026703623e-19)
(0.2252223453066308 0.000219466602388868 1.949443411508976e-19)
(0.2655794537646884 0.0002583553718728328 2.214780796036073e-19)
(0.3041399695293692 0.0002974630794265053 2.470337858842269e-19)
(0.3398037298135682 0.0003368739309621277 2.516075601341484e-19)
(0.3721106444419018 0.00037659584850491 2.518532765429554e-19)
(0.4014940196373173 0.0004170912422236508 2.326658293351774e-19)
(0.428474627138937 0.0004586822583853194 2.110655431685606e-19)
(0.4533385575225052 0.0005013897404212237 1.911801875528259e-19)
(0.4763686727218053 0.0005454303336498928 1.994944511110725e-19)
(0.4978411346165124 0.0005910157082924254 2.074100455446769e-19)
(0.5180099094603924 0.0006383343578540742 2.150068609542104e-19)
(0.5370981307016426 0.0006875645793908184 2.223616087652609e-19)
(0.5552954379434315 0.0007388808619003741 2.29519975887269e-19)
(0.5727590922633693 0.0007924535746857356 2.586813407820339e-19)
(0.5896172021581585 0.0008484466088131198 2.447891118552175e-19)
(0.6059728778310806 0.0009070170132249158 2.319098190652004e-19)
(0.6219084888712323 0.0009683140706885703 2.208704764344954e-19)
(0.6374895426079424 0.001032480424029805 1.698459421768764e-19)
(0.6527679703024887 0.001099651632613425 1.206694862893034e-19)
(0.6677848178460111 0.001169953710174204 7.300251875887669e-20)
(0.6825724657419359 0.001243500431414926 2.626060015133673e-20)
(0.6971564377738773 0.001320389507415438 -6.43760237289972e-20)
(0.711556822844824 0.001400700489325466 -1.14297482283542e-19)
(0.725789259486907 0.001484492293444895 -1.690042791863364e-19)
(0.739865235564415 0.001571801454309072 -1.379319206410958e-19)
(0.7537915904109119 0.001662638715963531 -1.102280188855088e-19)
(0.7675693547325622 0.00175698609460902 -8.564787932912054e-20)
(0.7811921685770857 0.00185479575646967 -6.396030422287746e-20)
(0.7946449978160891 0.001955990120469845 5.967584621141492e-20)
(0.8079051124831674 0.002060448775387328 7.987348953361794e-20)
(0.820949563883003 0.002167952424195368 9.864583785727888e-20)
(0.8337761104602556 0.002278257084664344 1.17677004186701e-19)
(0.8464054381353797 0.002391193773646395 1.381629139961342e-19)
(0.858841386026498 0.002506404536582145 1.613943917263505e-19)
(0.8710634996906506 0.002623370210371935 1.856939498055534e-19)
(0.8830464733803025 0.002741599627633388 2.056166373730844e-19)
(0.8947589506746964 0.002860489164414092 2.023369596191896e-19)
(0.9061638872609072 0.002979337488015518 2.412264008157996e-19)
(0.9172179172772974 0.003097297506702196 -9.521091484986047e-20)
(0.9278790794878568 0.003213408786141755 3.429966710505717e-19)
(0.9381103251127836 0.003326662242508923 8.05462865215928e-19)
(0.9478612757595279 0.003435884112118228 1.372817109757484e-18)
(0.9570474383538853 0.003539654143105617 2.128207707923997e-18)
(0.9655407120560795 0.003636795881739483 1.851157600191938e-18)
(0.9732335922115481 0.003725772773216648 1.561592079612676e-18)
(0.980044482201182 0.003805092596607984 1.259909983443466e-18)
(0.9859094956986005 0.003873584050938781 9.18751050091174e-19)
(0.9907874421925617 0.003930381813344108 4.650500254507596e-19)
(0.9946671034308675 0.003975166832092746 -2.884628186600655e-19)
(0.9975761964339046 0.004006898171825064 -1.861738744804189e-18)
(0.9995860939528466 0.004017043384800849 -5.834337719871795e-18)
(1.000804140145454 0.004018480569673047 -3.671084869642253e-18)
(1.001590326396833 0.004066530866925758 -1.020517679530062e-18)
(1.002193131801697 0.004040069153804044 5.622150650511467e-18)
(1.002623612164508 0.004038207026436254 -4.872364454652908e-18)
(1.002644938372094 0.004001575462259752 -3.201058873756542e-18)
(1.00249345980925 0.003971387900962908 -1.563374419429989e-18)
(1.002320888268978 0.003956660881136593 -9.150221147808924e-19)
(1.002253995751508 0.003939691025286968 -1.709330277794861e-17)
(1.00225344084406 0.003922267125600942 8.141461613960035e-18)
(1.00222892306072 0.003887795900375463 -8.377279528272622e-18)
(1.002192315478148 0.003853252334430937 -3.976145718587571e-18)
(1.002172250910914 0.00382373745344354 -1.240653790127559e-18)
(1.002157569545525 0.003788736064814681 -8.046089407370857e-20)
(1.002133434352112 0.003747657692786556 1.313547954561486e-19)
(1.002106681269146 0.003704676083299356 -6.913279020273292e-20)
(1.002081086595526 0.003659195369978332 1.469703091350124e-18)
(1.002053254020569 0.003609027848386901 2.58330070546435e-17)
(1.002022554554698 0.003554820383023474 8.383547947070541e-18)
(1.001989518301859 0.003496577402782674 2.668423611890227e-18)
(1.001954090013743 0.003433829535841136 2.619355037495491e-18)
(1.001916161274104 0.003366398050590334 6.676873964236021e-19)
(1.001875625020857 0.00329408860341904 3.203052057307777e-18)
(1.001832380364173 0.003216703838831891 6.430897657107136e-17)
(1.001786336408764 0.003134068102947536 1.324683815348849e-17)
(1.001737415632881 0.003046029615353717 2.282217541860799e-17)
(1.001685557814821 0.002952464991685905 4.900902899934885e-17)
(1.001630723536672 0.002853284498649384 2.42915107928152e-17)
(1.001572900328411 0.002748440108824264 4.871098624177487e-17)
(1.00151209975447 0.002637926591651944 4.493535740489516e-17)
(1.001448388396676 0.002521762202568697 4.096699518153554e-17)
(1.001382076645236 0.00240014846412843 7.339287345501609e-17)
(1.001313082632914 0.00227315783539997 1.187735376913145e-16)
(1.00124153613215 0.002141073482192648 1.758055453050767e-16)
(1.001167491133657 0.002003714923798682 1.682687926925395e-16)
(1.001093399098596 0.0018650636367531 1.721353467652682e-16)
(1.000998944673689 0.001716681050974801 1.694818699795649e-16)
(1.000902971528095 0.001567433634978824 1.661906979381895e-16)
(1.000806037734172 0.001414843736170643 1.627094899658312e-16)
(1.000708138252326 0.001260075513781791 1.176613008404503e-16)
(1.000607199426976 0.001100433514498997 1.64911832370709e-16)
(1.000520888923528 0.0009384087610413881 8.144461175452225e-17)
(1.000483349078872 0.0007863399924585167 9.997347402713938e-17)
(1.000450385081434 0.0006226187522903371 9.487986000662702e-17)
(1.000422899823301 0.0004543895345926419 9.396022631938357e-17)
(1.000402126299631 0.0002801450402330079 7.156668345533183e-17)
(1.000389614436686 9.708192352098785e-05 7.002039903672385e-17)
(1.00038744087728 -9.886743487118522e-05 3.251402747128133e-17)
(1.000398597484571 -0.0003147177462081283 5.763486149728739e-17)
(1.000427925969827 -0.0005623200688264253 4.234100731628273e-17)
(1.000481994786208 -0.0008373915882393377 3.386001612652425e-17)
(1.000568779962255 -0.0009642265073628794 -2.401384358536696e-17)
(0.9952951568316422 -0.00146019645015075 -6.560719480168725e-20)
(0.01053609959620109 3.433223440868126e-08 -6.107827921088434e-20)
(0.03168178310082892 5.43165333705049e-07 -1.836034041676708e-19)
(0.05305245059148542 1.578965835971775e-06 -3.313987280928271e-19)
(0.07479627050463165 3.171817377218608e-06 -4.81803075906785e-19)
(0.09704743947513707 5.33889164154482e-06 -6.354305507245221e-19)
(0.1199026940884287 8.115413370466623e-06 -7.925768451817354e-19)
(0.1433825245306411 1.153813803273946e-05 -9.515651035704218e-19)
(0.1673857087445363 1.562866324982931e-05 -1.118288332617727e-18)
(0.191664433911027 2.038322624426745e-05 -1.263764486109266e-18)
(0.2158525480471196 2.578200807266719e-05 -1.388639814771934e-18)
(0.2395582073508997 3.180958863058256e-05 -1.505209478130401e-18)
(0.2624880652600912 3.846601690752261e-05 -1.587415551441524e-18)
(0.2845141280805917 4.577794050744497e-05 -1.660440681046341e-18)
(0.3056666360258137 5.378500113326918e-05 -1.731347276262232e-18)
(0.3260666815098368 6.254699598339578e-05 -1.799816247194815e-18)
(0.3458060706691344 7.212177546984196e-05 -1.865840198138281e-18)
(0.3649296095685298 8.256572886623049e-05 -1.973142878248973e-18)
(0.38348278177595 9.395660421492179e-05 -2.077673209804388e-18)
(0.4015182991691882 0.0001063701632602181 -2.180689332833456e-18)
(0.4191254898795224 0.0001199079290502442 -2.284098546153097e-18)
(0.4363945591562317 0.0001346887471959901 -2.390212567516178e-18)
(0.4533749042514607 0.0001508215231389985 -2.487817104888867e-18)
(0.4701022807473515 0.000168431237503191 -2.541642989911891e-18)
(0.486613402818293 0.0001876482129443214 -2.589971771669354e-18)
(0.5029570475621935 0.000208613673059493 -2.645068704691458e-18)
(0.5191885302110766 0.0002314733346227746 -2.623292917134736e-18)
(0.5353617682369988 0.0002563843906075786 -2.676129887751883e-18)
(0.5515173342237079 0.0002835107016138384 -2.722591027127254e-18)
(0.5676770642407959 0.0003130116031946308 -2.786110033584533e-18)
(0.5838559222858963 0.0003450609635301619 -2.780057470613339e-18)
(0.600062945590899 0.0003798364182595975 -2.785156530805337e-18)
(0.6163021563488544 0.0004175187010923708 -2.774416701164042e-18)
(0.6325733723273207 0.0004582906337274717 -2.733724808189862e-18)
(0.6488730103636895 0.0005023347615035923 -2.660466178492423e-18)
(0.6651949737995897 0.000549824518710968 -2.558110762770489e-18)
(0.681534669207683 0.0006009257066674083 -2.444634433330205e-18)
(0.6978904128639112 0.0006557918024220291 -2.327190956875801e-18)
(0.7142644938671571 0.0007145711502811257 -2.39757623663841e-18)
(0.7306596667818949 0.0007774028625456043 -2.481960620935265e-18)
(0.7470734965458429 0.0008443890720812181 -2.586791402202572e-18)
(0.763503959340146 0.0009155990195106715 -2.309198367641149e-18)
(0.7799523011139591 0.0009910650033436187 -2.098036337528054e-18)
(0.7964186181089391 0.001070753664778103 -1.497158144623182e-18)
(0.8128982487613551 0.00115454247270165 -9.457516800495839e-19)
(0.8293815754956867 0.001242203321434925 -2.464991993807099e-19)
(0.8458542157542498 0.00133337990857676 1.426470584733761e-20)
(0.8622952427586467 0.0014275840732597 3.337681195555537e-19)
(0.8786741577101483 0.001524219672325563 -1.67220863768635e-19)
(0.8949464146454882 0.001621992722989923 -1.019533415953309e-18)
(0.9109765346978725 0.001719545356035057 -2.330575908483839e-18)
(0.9265760235472721 0.001815392271016487 -2.310099942025298e-18)
(0.9414901136314612 0.001907331163980102 -2.68558613935178e-18)
(0.9553960848345415 0.001992753232498191 -3.604287860678472e-18)
(0.9679261378232202 0.002068808081583462 -5.31407800681939e-18)
(0.9787366602973381 0.002134486711016584 -8.327192357593563e-18)
(0.9876149176238028 0.002196540569899908 -8.930038998830488e-18)
(0.9945094137672948 0.002238847234348965 -9.996273277694997e-18)
(0.9993597698668966 0.002220737355129099 2.874031466985211e-18)
(1.002423686853317 0.002267624322054891 1.104827260171822e-17)
(1.004249106168907 0.002239564989799934 5.152870925568994e-18)
(1.005568827789473 0.002255636993687538 8.93174191606228e-19)
(1.006295047123786 0.002273145410334196 -7.95251780130866e-19)
(1.006366468226473 0.002270631167064157 -1.467446643961158e-18)
(1.006217341518366 0.002257060490963606 -1.372620813101484e-17)
(1.006077156148659 0.002243562619817698 -3.275203494538969e-19)
(1.006091821225716 0.002236140402811598 -3.220773041260684e-17)
(1.006072873402569 0.002232203360945745 -1.67960415800027e-17)
(1.006005018466996 0.002227781667124639 -2.197321059081917e-18)
(1.005939482951218 0.002219597681603948 -2.152917683783852e-18)
(1.005895676669438 0.002212244623251074 -1.180466941688271e-18)
(1.005836826762713 0.002205462865832554 8.508189702507678e-19)
(1.005768516892239 0.0021978630660272 -2.041405118985819e-17)
(1.00569817296628 0.002189383230506879 -1.177882360447994e-17)
(1.005623483683907 0.002180502250923919 1.921177949042765e-18)
(1.005543044414118 0.002170938822603708 -5.789788245453824e-18)
(1.005456858787343 0.002160414359063211 -2.493361544567721e-17)
(1.005364760407509 0.002148827180159794 -1.702387064460352e-17)
(1.005266549188535 0.002135974057299601 -4.235739215336715e-17)
(1.005162077381488 0.002121604795777598 1.591714393821984e-17)
(1.005051245922538 0.002105440645401573 -8.968197644805121e-18)
(1.004934010100889 0.00208715953186132 -5.151508218697386e-17)
(1.004810389526746 0.002066391961819465 3.224430550071706e-17)
(1.004680478377381 0.002042717275195094 4.257452122120849e-17)
(1.004544453880897 0.002015661315602968 8.775543424964496e-17)
(1.004402591088521 0.001984703249190662 2.119871894707022e-16)
(1.004255196810057 0.001949224505412748 3.172418160070705e-16)
(1.004102463754317 0.00190860575073661 4.779869489398649e-16)
(1.00394530394331 0.001862094207790718 6.657333328884208e-16)
(1.003784455149985 0.001809134258866185 8.633591399388035e-16)
(1.00362066345629 0.001747710254394637 9.844545818069733e-16)
(1.003454337188351 0.001679637290714123 1.01624646005797e-15)
(1.003312808736639 0.001600536671901222 1.124912697167753e-15)
(1.003169969216177 0.001512427482922385 1.098402774794658e-15)
(1.003025422863218 0.00141147586997207 1.060881781012557e-15)
(1.002880144896784 0.00129839654573132 9.214170908825279e-16)
(1.002734608652214 0.001172885751303425 8.139750682425431e-16)
(1.002594807865096 0.001030133279573174 5.547093385214078e-16)
(1.002474499752075 0.0008697909291229533 4.790137621015727e-16)
(1.002367909504096 0.0006935753234674401 4.105524177785296e-16)
(1.002277455321557 0.0005045127184802853 3.607969525028331e-16)
(1.002207316800048 0.0002988366394448108 2.89460249276475e-16)
(1.002162851174134 7.58816266642914e-05 3.761632928787228e-16)
(1.00215097700671 -0.0001644847739130515 4.033991654972832e-16)
(1.002180702989421 -0.0004204024258266439 3.645733762123373e-16)
(1.00226544334497 -0.0007020694314909127 3.050932072728455e-16)
(1.00242934655132 -0.001056519907573062 1.556320980089425e-16)
(1.002571726375574 -0.001075416151513399 2.203101056313728e-17)
(0.9894214741268249 -0.002214452303875336 6.75063088128399e-20)
(0.009048739242919679 2.396162910239676e-09 2.262020021600895e-20)
(0.02721077490953241 3.967772228376034e-08 6.797761801756081e-20)
(0.04556790488826144 1.167773116457179e-07 1.136519239180954e-19)
(0.06424897452011015 2.367857918856723e-07 1.596859913927968e-19)
(0.08337423703542514 4.021302978101572e-07 2.059791949386419e-19)
(0.1030393656835257 6.173108489390597e-07 2.524550224023711e-19)
(0.1232869476349188 8.887559462495545e-07 3.288906109551879e-19)
(0.1440672983517459 1.225382816447462e-06 4.067759983678782e-19)
(0.1652049880577054 1.640166665964305e-06 5.177498906319784e-19)
(0.1864013565260075 2.152091985015423e-06 5.993158717439309e-19)
(0.207292651430558 2.787615055161966e-06 6.814219669061894e-19)
(0.2275462998804251 3.580789473471551e-06 7.619935384919392e-19)
(0.2469581128775716 4.570192090791771e-06 8.397019958359552e-19)
(0.2655106694216642 5.793103800208863e-06 9.130721300777654e-19)
(0.2833322402271942 7.296951433221783e-06 9.888683835205067e-19)
(0.3005301760853131 9.128545425176852e-06 1.015015733186505e-18)
(0.3171487125300333 1.133921505818589e-05 1.04655284203034e-18)
(0.3332353997689774 1.398852029753241e-05 1.079010329613548e-18)
(0.3488444859871258 1.714228138983444e-05 1.067801400267415e-18)
(0.3640333297174139 2.087504614257451e-05 1.060320148741869e-18)
(0.3788619008746475 2.527059933335596e-05 1.09959822372851e-18)
(0.3933950822476128 3.042156211003673e-05 1.097943190473351e-18)
(0.4077153989511727 3.642987539311915e-05 1.099746641174036e-18)
(0.4219219099720152 4.341612330206071e-05 1.105471975717368e-18)
(0.4360891091042498 5.150672208222495e-05 1.115411637198426e-18)
(0.4502638052985324 6.083112747531611e-05 1.129882827477876e-18)
(0.464493192014455 7.153913757447915e-05 1.149779696231257e-18)
(0.4788233607995712 8.379488285809034e-05 1.176977410570244e-18)
(0.4932916077980694 9.77772720911344e-05 1.215746654319589e-18)
(0.5079259540506056 0.0001136790713616681 1.271253465700807e-18)
(0.5227488082943729 0.0001317091910141295 1.255708808807094e-18)
(0.5377776523717174 0.0001520903682872956 1.255039518596515e-18)
(0.5530257058008353 0.0001750579658356251 1.259137021444437e-18)
(0.5685026183281673 0.0002008581668080779 1.460623456178191e-18)
(0.5842152198465196 0.0002297453789526868 1.677258214162921e-18)
(0.6001683418765905 0.0002619801319789773 1.864670767992291e-18)
(0.6163656694159253 0.0002978266386250617 2.04151999531544e-18)
(0.6328105806432049 0.0003375520615397646 2.2067362238553e-18)
(0.6495069105782543 0.0003814227670551936 2.436599097446327e-18)
(0.6664596229857185 0.0004297009244414546 2.6745084075302e-18)
(0.6836754747668752 0.0004826461500475959 2.63702426171577e-18)
(0.7011604062971867 0.0005405085261070944 3.086378241270757e-18)
(0.7189181101099342 0.0006035146374582908 3.610630677914796e-18)
(0.7369563661400252 0.0006718766690920059 3.120543032201821e-18)
(0.7552898024995547 0.0007457657600980724 2.643935004227106e-18)
(0.7739361860087423 0.0008252882687321689 3.018980183401612e-18)
(0.7929131170178358 0.0009104697196910884 2.987471167474099e-18)
(0.8122328843912645 0.001001247043449052 1.718660599211127e-18)
(0.8318985278767254 0.001097451280634848 4.536121742116808e-19)
(0.8518945702070471 0.001198827895121671 -8.219257599404681e-19)
(0.872148670175785 0.001304627606463247 -2.073168758513324e-18)
(0.892510305974577 0.001413661103205329 -3.3322241250895e-18)
(0.9127131040983644 0.001524102468728967 -4.62491069926531e-18)
(0.9323247012173104 0.001633220657552647 -5.975626439779547e-18)
(0.9507040872682831 0.001737200837452471 -7.254619558776329e-18)
(0.9670687370915443 0.001832535711876939 -7.846989860535711e-18)
(0.9806962993042611 0.001914646759704387 -7.523260954752753e-18)
(0.9911085196272381 0.001969679892930402 -5.419546158269046e-18)
(0.998285025739629 0.002002032844000927 -7.141848470235608e-18)
(1.002732087411614 0.002042064513370859 -7.289593049597679e-18)
(1.005180973692495 0.002060633922476538 -1.476300238542032e-18)
(1.006553197731756 0.002047556572653441 -1.59546037394804e-18)
(1.007248774138686 0.002035954854233471 -2.192853494132757e-18)
(1.007459687867193 0.00202641121130185 -9.44025572078959e-18)
(1.007372742382831 0.002019137102690206 -2.712357355976456e-18)
(1.007225693932786 0.002021511389440886 -6.070209081607606e-17)
(1.007204824989891 0.002008496064061178 -4.86319956830422e-17)
(1.007201648508502 0.001993690772354647 -2.445348574062506e-17)
(1.007166008590591 0.001981301256948509 1.787370267129976e-17)
(1.007121432910449 0.001970760853740204 6.66149349938005e-18)
(1.007088012875468 0.001955941190747507 -1.184070384875756e-17)
(1.007050170749114 0.001939693909048327 -1.609991335500587e-17)
(1.007007590079179 0.001922822074488579 -3.652790228708601e-18)
(1.006961804167402 0.001904405646564156 -3.018076977451093e-17)
(1.006912541067705 0.001884236238774457 -2.158674071433747e-17)
(1.006859580591606 0.00186229876254798 -1.152442219197018e-17)
(1.00680273466996 0.001838504407305065 9.507361963319588e-18)
(1.006741773700477 0.001812691915480482 -5.747335575736201e-17)
(1.006676471195739 0.001784708646811099 3.233617026770234e-17)
(1.006606601786453 0.001754399574476925 1.882518344055781e-17)
(1.006531943623515 0.001721593699436781 -4.444025962699647e-17)
(1.006452283995348 0.001686106147626233 8.140998111634652e-18)
(1.00636742384386 0.001647736812552519 1.108327869309337e-18)
(1.006277183855332 0.001606262577743758 1.682273763316682e-17)
(1.006181410104057 0.001561459427715349 1.412860993324692e-16)
(1.006080048490377 0.001513061333947104 1.865552700195899e-16)
(1.005973287835546 0.001460722756062695 3.376044338091301e-16)
(1.005860823825969 0.00140409128175875 4.736800093690096e-16)
(1.005742694662391 0.001343251975070552 5.537610282251081e-16)
(1.005619054681108 0.0012766765174823 6.656914323352063e-16)
(1.005490320713074 0.001204161570592749 6.225079505942967e-16)
(1.005356722140381 0.001127715081431554 6.940586224965734e-16)
(1.005218008035453 0.001044906402456796 5.350233521047989e-16)
(1.005075199396216 0.0009545559757047838 3.790629873128968e-16)
(1.004929554706012 0.0008569560135616169 1.795453216617657e-16)
(1.004782261772648 0.0007526386050467071 6.471565652709852e-17)
(1.004635505535254 0.0006384626836121783 -1.657683438696348e-16)
(1.004491082285685 0.0005125505583831773 -2.018893058367113e-16)
(1.00435721717137 0.0003770197527808252 -1.000315492335627e-16)
(1.004240083315207 0.0002304225621813587 1.174082997960453e-16)
(1.004145644677088 6.911632596024952e-05 3.111022475467389e-16)
(1.004081363755276 -0.0001075660930130595 5.766214460667453e-16)
(1.004056001539045 -0.0003024206375895425 7.804423001429661e-16)
(1.004080041655394 -0.0005131747249810679 7.673798712602127e-16)
(1.004167811101766 -0.0007313288743691291 6.465500626927412e-16)
(1.004344834632897 -0.001117236924322482 3.727296964484359e-16)
(1.00434402006852 -0.0008964812135890871 7.838354976998789e-17)
(0.9836393013421633 -0.002423322209024852 -6.852204469138723e-20)
(0.00969853432840868 -4.538997879996421e-09 6.688793105970017e-20)
(0.0291648389125252 -7.539798250100322e-08 2.000832195939071e-19)
(0.04884009289877364 -2.220617318863753e-07 3.329280031557422e-19)
(0.06886069928471045 -4.504996156760116e-07 4.971228513062755e-19)
(0.08934839492368042 -7.652961553569324e-07 6.660513380320564e-19)
(0.110384846234489 -1.174218136193096e-06 8.088702306995624e-19)
(0.1319678453245457 -1.686279801266928e-06 9.545796656761454e-19)
(0.1539541599888649 -2.308917594263705e-06 1.132272245087225e-18)
(0.176019787802441 -3.043829974456572e-06 1.313990039603046e-18)
(0.1976965800768959 -3.882686105585562e-06 1.463081291988746e-18)
(0.2185083077313999 -4.806439187043701e-06 1.581075576285082e-18)
(0.2381245943818225 -5.78892902221332e-06 1.691867088310857e-18)
(0.2564417516080286 -6.802610430981229e-06 1.768223969994554e-18)
(0.2736433036984054 -7.832148242292726e-06 1.840929110986825e-18)
(0.2899330416618877 -8.862184415994241e-06 1.910621306690684e-18)
(0.3053911780001128 -9.871385611353249e-06 1.977422537098864e-18)
(0.3200956218543474 -1.083691257739824e-05 2.041564140947505e-18)
(0.3341299837183074 -1.173378377231017e-05 2.103401007837418e-18)
(0.3475793961953494 -1.253479571047295e-05 2.163352594940318e-18)
(0.3605270614566811 -1.320970651924163e-05 2.247717261075399e-18)
(0.373052050325437 -1.372435844243991e-05 2.318689485110673e-18)
(0.3852283281575341 -1.40397973393895e-05 2.375276967004213e-18)
(0.3971257715036621 -1.41141731665467e-05 2.431332962270091e-18)
(0.4088146259040894 -1.389022103880966e-05 2.486963485749274e-18)
(0.4203773977233748 -1.331121353982015e-05 2.542490198338894e-18)
(0.4319042835761679 -1.230631649039556e-05 2.598295561374295e-18)
(0.4434608196960843 -1.079290675579364e-05 2.654689396996682e-18)
(0.4550894002103046 -8.675137311070416e-06 2.71190824106572e-18)
(0.466830834513967 -5.84028295629543e-06 2.770228109233379e-18)
(0.4787242149283738 -2.158047643552916e-06 2.829965038883275e-18)
(0.4908074727045025 2.520599772444876e-06 2.891458925390193e-18)
(0.5031178153080422 8.365057466443649e-06 2.955262251216255e-18)
(0.5156920009614895 1.556652120169675e-05 3.021990267391511e-18)
(0.5285663722107121 2.433929319039398e-05 3.092548872448954e-18)
(0.5417767231453001 3.492616490664109e-05 3.167454940358454e-18)
(0.5553561087230749 4.75930770061861e-05 3.247492805947333e-18)
(0.5693345638011252 6.263473732314934e-05 3.33344964666541e-18)
(0.5837387545460717 8.037637765748756e-05 3.426857141731482e-18)
(0.5985911679409419 0.0001011740394820553 3.528648614029312e-18)
(0.6139096044664429 0.0001254167810335547 3.638131232024875e-18)
(0.6297071871768143 0.0001535289909056974 3.751088345846381e-18)
(0.6459930208723926 0.000185972362759808 3.861585141099305e-18)
(0.6627735762974928 0.0002232486223284668 3.958611875008152e-18)
(0.6800547181954565 0.0002658652866447314 4.022344301931798e-18)
(0.697867465971203 0.0003143495309793725 4.060927363134566e-18)
(0.7162575943806928 0.0003692925753315126 4.471912751305206e-18)
(0.7352304464613694 0.0004312151774553322 4.762313201770994e-18)
(0.7547471318785484 0.0005005421582560394 5.5078375232238e-18)
(0.7747816435733434 0.0005776042010509672 6.390720094745329e-18)
(0.7953922171587381 0.0006629023430756689 6.046654019698256e-18)
(0.8166349535684736 0.0007567422819180392 5.898286979192852e-18)
(0.8385000265482979 0.0008589955466501753 5.279860976004158e-18)
(0.8609412543944239 0.0009692457272101465 3.134137707974091e-18)
(0.8838378282939928 0.001086545159679045 1.382894711641779e-18)
(0.9069243510524173 0.001209532754777968 1.589709534971567e-19)
(0.9296585842511716 0.001335846970944133 -8.306363450392232e-20)
(0.9512258045359357 0.001461107166501199 -3.0699028626231e-18)
(0.9704854489388128 0.001579767021682174 -5.48750454096581e-18)
(0.9861134664410863 0.001679154808236272 -7.068728707204218e-18)
(0.9971558517596746 0.001758103100840127 -3.387723617820024e-18)
(1.003591445424845 0.001805168594056583 7.501893471422159e-18)
(1.006576062995239 0.001826986600872109 1.732037977894412e-18)
(1.007698345271409 0.001819947956842788 -2.513686153370879e-18)
(1.008063965725579 0.001824426907120877 -8.657361850029487e-18)
(1.008190403054349 0.001814731539413886 -1.503507707062755e-17)
(1.008214494957512 0.001803166848727853 -6.273073060876008e-17)
(1.008148627344644 0.00179910766849887 -5.329920085362071e-17)
(1.008089921366532 0.001790079656156027 -2.269402441405143e-17)
(1.00806047274827 0.001779180401674908 1.716894539505523e-17)
(1.008034926345116 0.00176902631933303 -7.59895548999688e-18)
(1.00799428247445 0.001757459857361704 -1.062456824380138e-18)
(1.007951092864213 0.001744536185242722 -1.488725297592222e-17)
(1.007907095778986 0.001730693667047523 3.034269298883662e-17)
(1.007860291711946 0.001715455633775291 -1.108684821631915e-17)
(1.007809924044415 0.001698738530683999 -3.479191348428758e-17)
(1.007755886048818 0.001680483539380581 -2.341737166154122e-17)
(1.007698034064429 0.001660533606349607 6.678275784110172e-18)
(1.007636178042133 0.001638709842966209 -4.886160507698702e-17)
(1.00757014103343 0.001614844936009636 3.232060367200728e-17)
(1.007499759524181 0.00158875494064861 2.986956001245184e-17)
(1.007424884959582 0.001560235383743518 -3.908424892078616e-17)
(1.007345388881447 0.001529066248880707 -1.098001254007151e-17)
(1.00726116897922 0.001495011763965386 -7.376400077509169e-17)
(1.007172155501943 0.001457810357187132 -9.181755792054391e-17)
(1.007078321226687 0.00141719179366655 -4.114538561910668e-17)
(1.006979611623702 0.001372858811156028 -7.993409138288749e-17)
(1.006875867413142 0.001324504760597108 -5.718951330488239e-17)
(1.006767554816289 0.001271588253891447 -6.849858565134321e-18)
(1.006654912760504 0.001214270266638151 -7.689999850995394e-17)
(1.006538198369823 0.001151556162836148 -5.134998471306529e-17)
(1.006417923180065 0.001082631347890304 -2.190434644172358e-16)
(1.006294682380464 0.001008731088423444 -2.980855679700087e-16)
(1.006168386572102 0.0009279164431882522 -5.298348621371218e-16)
(1.006040141860153 0.0008398637937949142 -7.503831178700524e-16)
(1.005911105988601 0.0007441158592636375 -8.914482789377584e-16)
(1.005782354627391 0.0006409718714600123 -9.946473746101394e-16)
(1.005655579950631 0.0005289367417753907 -1.138623776433609e-15)
(1.005539189130802 0.0004056380840639662 -9.549211287720853e-16)
(1.005436940367092 0.0002725705416737864 -7.39234907609632e-16)
(1.005349458998069 0.000127874437638567 -2.51715102042326e-16)
(1.005281115861089 -3.074616590777773e-05 1.551189291411707e-16)
(1.00523746054431 -0.0002031344613913133 6.691037344214619e-16)
(1.005225823453236 -0.0003933441942986491 1.029921896864922e-15)
(1.005254894570725 -0.0006031252946728355 1.009176578578645e-15)
(1.005334976882758 -0.0007864903627932805 8.594075985249343e-16)
(1.005503341562916 -0.001239076254392097 4.71371732757025e-16)
(1.005289328072093 -0.0008175335162353907 8.683177189033829e-17)
(0.9781145265394356 -0.002522917509486271 1.717778320971795e-18)
(0.01027919472051122 -7.888634795978585e-09 5.686695861856697e-20)
(0.03091097780722719 -1.310723016506769e-07 1.71022296360269e-19)
(0.05176403144526767 -3.860369070789402e-07 2.863519345287341e-19)
(0.07298170161748825 -7.831485435761086e-07 4.033758893185807e-19)
(0.09468831481919343 -1.330349067904605e-06 5.222571427198287e-19)
(0.1169574522347276 -2.04108395466573e-06 6.427068462058924e-19)
(0.1397590395294343 -2.931043261453172e-06 7.701161624942678e-19)
(0.1628945107751636 -4.014042053582969e-06 8.664581307766339e-19)
(0.1859603043875008 -5.297195592357059e-06 9.631955854157444e-19)
(0.2084095024713871 -6.777351824096814e-06 1.089431616724953e-18)
(0.2297282580195366 -8.443062842325538e-06 1.20527775629495e-18)
(0.2496087255690045 -1.027804576611516e-05 1.313865821847192e-18)
(0.2680498240402694 -1.227658134343375e-05 1.415274931324953e-18)
(0.2852820374601822 -1.444440777032815e-05 1.511775902591651e-18)
(0.3014982657213646 -1.678996274663602e-05 1.59664849902571e-18)
(0.3167964430608314 -1.931018699220936e-05 1.69668904924448e-18)
(0.3312721586706454 -2.200865734279866e-05 1.785146287463324e-18)
(0.3450234830234429 -2.489036185464822e-05 1.876265289812638e-18)
(0.3581462433122534 -2.796070529685464e-05 1.927950990962261e-18)
(0.3707301529647784 -3.122551593764586e-05 2.004483112764946e-18)