/*--------------------------------*- C++ -*----------------------------------*\
| =========                 |                                                 |
| \\      /  F ield         | OpenFOAM: The Open Source CFD Toolbox           |
|  \\    /   O peration     | Version:  v1812                                 |
|   \\  /    A nd           | Web:      www.OpenFOAM.com                      |
|    \\/     M anipulation  |                                                 |
\*---------------------------------------------------------------------------*/
FoamFile
{
    version     2.0;
    format      ascii;
    class       volScalarField;
    location    "1792";
    object      k;
}
// * * * * * * * * * * * * * * * * * * * * * * * * * * * * * * * * * * * * * //

dimensions      [0 2 -2 0 0 0 0];


internalField   nonuniform List<scalar> 
11121
(
2.677348981014764e-07
6.489275280205057e-06
4.015881981105825e-05
0.0001366827324132871
0.0003395653972458892
0.0006913596202335186
0.001214861680974355
0.001892367444720388
0.002665551385821059
0.003462210374741237
0.004224899084297211
0.004921565382681267
0.005542645207339278
0.006088043168112538
0.00656007228698752
0.006963860070575163
0.00730598435899525
0.007593402963566711
0.00783273666613093
0.008029971500341805
0.008190326926110443
0.008318236722755836
0.008417392004707669
0.00849081181679542
0.008540918133696165
0.00856960920430617
0.008578326469771708
0.008568110576262172
0.008539647388402852
0.00849330461502251
0.008429160186541508
0.008347023986433723
0.008246455269283163
0.008126779593876518
0.007987112060007687
0.007826399204540459
0.00764350143990693
0.007437352290296944
0.007207245347027996
0.00695331435274741
0.006677243068936068
0.006383131287778285
0.006078203318069431
0.005772711792555169
0.005478247138670646
0.005204184463102725
0.004953182169726939
0.004725290651278953
0.004521742372962324
0.00434375501675635
0.004191531280537669
2.676586783064651e-07
6.470618767777937e-06
3.999550170314315e-05
0.000136052992238895
0.0003379354947014629
0.0006881161991955233
0.001209669196919072
0.001885559161062934
0.002658122571279033
0.003455375824735007
0.004219661842314361
0.004918539722561651
0.005541989702259231
0.006089964369083538
0.006564694761945444
0.006971240432984807
0.007316139784726739
0.007606334505328048
0.007848444545536107
0.008048464672018502
0.008211628538532091
0.0083423870149447
0.008444449745826435
0.008520855116131329
0.008574045266166114
0.008605939806074226
0.008618003383715264
0.008611302623403221
0.008586553274303164
0.008544158123694311
0.008484236686365866
0.008406648014989509
0.00831100845892211
0.008196707244120508
0.008062924917845236
0.007908663979434403
0.007732808698610982
0.007534243514902988
0.007312076314342095
0.007066028748199048
0.006797050789769396
0.006508147342509713
0.006205209403937066
0.00589731250358482
0.005595693761195559
0.005310937131586322
0.005048955755062514
0.004809707216923702
0.004593847258925109
0.004403016183899306
0.004237870557662077
0.004098047453223699
2.673782101946124e-07
6.447639847304694e-06
3.98074008857705e-05
0.0001353422286683847
0.0003361087862623466
0.0006844773006735217
0.001203788760863136
0.001877693644139017
0.002649234108158377
0.00344669137146494
0.004212222135365728
0.004913001017725688
0.005538549021259784
0.006088857637892357
0.006566070866912104
0.006975176884315161
0.007322672640958851
0.00761548202413938
0.007860224386789032
0.008062903501742068
0.008228767427603709
0.008362283995027739
0.008467180624122066
0.008546513438198816
0.008602742096300998
0.00863780371679688
0.008653180987944511
0.008649959927649159
0.008628878084714393
0.008590363681778198
0.008534566630076335
0.008461382590990099
0.008370471569479808
0.008261273227167043
0.008133022688217681
0.007984773908360705
0.007815443921114372
0.007623901953764209
0.00740914312832909
0.007170603996664483
0.006908682638957923
0.006625485654671655
0.006325684072713885
0.006017087933332142
0.005710252396292002
0.005416452090469166
0.005144037594371954
0.004894101739922536
0.004666890088140059
0.004464024287851858
0.004286588470115068
0.004134645177392836
0.004007278024612776
2.668296179844266e-07
6.418297254716622e-06
3.958049564371572e-05
0.0001345008556372584
0.0003339622944121348
0.0006802034714625618
0.001196838654297685
0.001868261987527306
0.00263830536979731
0.003435574319107753
0.004202053392512335
0.004904515906558681
0.005532000341287471
0.006084522359160346
0.006564123044408098
0.006975705983174246
0.007325716863204339
0.007621055326299767
0.007868336571681031
0.008073572214642055
0.008242025493560781
0.008378183396918036
0.008485794220384184
0.008567935328832228
0.008627087264681329
0.008665207350586304
0.008683797858322767
0.008683964134714665
0.008666463464097595
0.008631745142234743
0.008579982647554057
0.008511098968667169
0.008424786342685004
0.008320522112486038
0.008197583561709734
0.008055067108030479
0.00789192222491049
0.007707019306786982
0.007499284463097536
0.007267951632134817
0.007012995039910035
0.006735789054518234
0.006439951406341716
0.006132104089935496
0.005821948990421807
0.005520845136896885
0.005238484042560547
0.004978404910958843
0.004740695032018778
0.004526540098724714
0.004337416678248302
0.004173798336460005
0.004035147078028957
0.003920024731143934
2.659996110430328e-07
6.382467765339266e-06
3.931459695299812e-05
0.0001335293236902835
0.000331499551805567
0.0006753078785379697
0.001188855126799725
0.001857343602281709
0.002625480971404608
0.003422253936219622
0.004189485052812827
0.00489352352208442
0.005522885244174386
0.006077613606819003
0.006559633115403697
0.006973747765489067
0.007326338427888423
0.007624268793927645
0.007874140475066413
0.008081965385103782
0.008253016314056833
0.008391795704844066
0.008502070917466322
0.008586940563851175
0.008648907695798232
0.008689952767053812
0.008711601418701441
0.008714982400518212
0.008700876433799102
0.008669756516962609
0.008621820589497779
0.008557017600893153
0.008475068130166869
0.008375480960560318
0.008257567802913915
0.008120460227414347
0.007963136749068577
0.00778447526129845
0.007583358014735606
0.007358873265368018
0.007110674694455667
0.006839559010600103
0.006548262675406172
0.006242298825733296
0.005930335852950821
0.005623342476530576
0.005331956168362573
0.005062504458190125
0.004815043026188821
0.004590267526796117
0.004390015265870593
0.004215153515181704
0.004065520917758993
0.003939999366042975
0.003836676586916204
0.003753045209039607
0.003686191429056818
0.003632944652507731
0.003589979660034219
0.003553878560388501
0.003521168505311995
0.003488353103913624
0.00345195209021823
0.003408556722040096
0.003354899438525872
0.003287927662847798
2.649627296441381e-07
6.342560855640858e-06
3.902625607802503e-05
0.0001324858955011066
0.0003288633998798105
0.0006700625942168863
0.001180256452845402
0.001845466186365567
0.002611315369750958
0.003407219669477079
0.004174871267374864
0.004880202289608775
0.005511189962320519
0.006067920483623764
0.006552204514919081
0.006968745503245385
0.007323856366414156
0.007624359861966397
0.007876837786457494
0.008087294807956034
0.008261004696600377
0.008402476139872937
0.008515486165088496
0.008603145521001566
0.008667971431818484
0.008711960344823584
0.008736655682143562
0.008743205802006425
0.008732412923177021
0.008704773456827252
0.008660510635796844
0.00859960054790973
0.008521792798566966
0.008426627161115594
0.00831344803353638
0.008181419819183633
0.008029549343951664
0.00785672736190055
0.007661811630566135
0.00744378971376594
0.007202077727291221
0.006937018599683739
0.006650607505868941
0.006347339285631973
0.006034806527283608
0.005723371328529756
0.005424219359796388
0.005145733772189367
0.00488904989271251
0.004654477570546516
0.004443780928950981
0.004258206067953036
0.004097973257026188
0.003962301582101587
0.003849543882717299
0.003757378522088818
0.0036830060091179
0.003623314498685789
0.003574998921358253
0.003534636396529436
0.003498731852386819
0.003463751878737886
0.003426162922038549
0.00338248366074925
0.003329352632435361
0.003263603128750864
0.003182330626755595
2.637991864958142e-07
6.300401070842724e-06
3.872637895318048e-05
0.0001314066497803824
0.0003261393318687202
0.0006646262588557795
0.001171278776711506
0.001832912097898104
0.002596075718993951
0.003390654057775601
0.00415824974091975
0.004864405439506383
0.00549658679414733
0.006054903611366802
0.006541054878054159
0.006959649338593615
0.007316938468352283
0.007619710454855721
0.007874533001477953
0.008087407849671976
0.008263612143483218
0.008407660861097413
0.008523338240078103
0.008613762482047998
0.008681458846088263
0.008728433235738598
0.00875624060448619
0.008766042058403459
0.008758651805128049
0.008734576951293888
0.008694052068654336
0.008637068115538511
0.008563394891279896
0.008472597785152615
0.008364050978452418
0.00823695044688702
0.008090332120807816
0.007923105009934024
0.007734117630870097
0.007522289795306957
0.007286859442357028
0.007027807296756191
0.006746507093324512
0.00644655992440665
0.006134552433990951
0.005820140060189377
0.005514626623186258
0.005227575860576285
0.004962107151054167
0.004718415138929892
0.004497916228341414
0.004302186307903153
0.004131798728308599
0.003986303859414837
0.003864329347970425
0.003763756164391201
0.003681916773348393
0.003615773049192026
0.003562051457435168
0.003517332612275831
0.003478106167944485
0.003440808477848628
0.003401860263475905
0.00335771628185048
0.003304930573060391
0.003240231552009782
0.003160593639770555
0.003063289130500279
2.622681858501719e-07
6.249767475694336e-06
3.837547991582881e-05
0.0001301571212602294
0.0003230024135596011
0.0006583809564658513
0.001160960872032437
0.0018184341569797
0.00257838560231107
0.003371239365717554
0.004138517072951664
0.004845342538377424
0.00547864262771446
0.006038513338721668
0.006526509726228322
0.006947120540904816
0.007306518243106784
0.007611446707998603
0.007868456595486805
0.008083550044323729
0.008262016850948977
0.008408393592173
0.00852649356120134
0.008619470586255614
0.008689887729442751
0.008739774003900242
0.008770646439917854
0.008783656410710612
0.008779579695809057
0.008758958959978533
0.0087220898943773
0.008669012277185934
0.00859950104564478
0.008513118289149114
0.008409241542275174
0.008287079912947819
0.008145688484554686
0.007983992544163408
0.007800838330029317
0.007595097666964717
0.007365870211461932
0.007112844213143049
0.006836877186989609
0.006540800114629514
0.006230266365611207
0.005914125429307956
0.005603471469888702
0.005308706233215207
0.005035004695964007
0.004782648391896361
0.004552776902315473
0.004347280017477972
0.004167062079714292
0.004011990735673554
0.003880966550317839
0.003772080542367876
0.003682808867253996
0.003610198977537567
0.00355101870057025
0.003501859612996582
0.003459201977300367
0.003419457336391961
0.003379006593675003
0.003334247408282753
0.003281656896799487
0.003217866227819909
0.003139735438901841
0.003044412664087202
0.002929364700605709
0.002792377778066159
2.601534999372512e-07
6.185866661939323e-06
3.794519055172968e-05
0.0001286435801214269
0.000319228638372729
0.0006509009673639539
0.001148638003939722
0.001801167985227808
0.002557298155663821
0.003348099134145323
0.004115013098318083
0.004822673956389209
0.005457349346615163
0.006019155211797223
0.006509470273501165
0.00693262253728091
0.007294666969783691
0.00760226958082827
0.007861936596223246
0.008079649831822506
0.008260698010332235
0.008409632172712119
0.00853029236314143
0.008625866898982809
0.008698951657059762
0.008751587529561861
0.008785300570316384
0.008801219473185186
0.008800113361853251
0.008782589178333893
0.008748985440800706
0.008699420290309103
0.008633708855470039
0.008551424502605728
0.008451945067603632
0.008334479911733842
0.00819808818616004
0.00804169972471081
0.007864154254071217
0.007664283717486565
0.007441077611816594
0.00719398983081335
0.006923453961686438
0.00663163580926343
0.006323303538413014
0.006006392560344921
0.005691506757356132
0.005389656392064997
0.005108355780888577
0.004847928721487151
0.004609138680173769
0.004394202096076867
0.00420437680681082
0.004039866772965915
0.003899860742096719
0.003782673074827814
0.003685935498292953
0.003606791068791701
0.00354205672334988
0.003488340642242812
0.003442117983582794
0.003399779418684822
0.003357670501507699
0.003312137255352425
0.003259586244083314
0.003196558064113684
0.003119804390918296
0.003026353525496795
0.002913550801317265
0.002779070799132154
0.002620920434152154
0.002437488429216406
2.57719220054817e-07
6.115698646163799e-06
3.748032141639868e-05
0.0001270187859180385
0.0003151850591886152
0.0006428740474227502
0.001135350543784952
0.001782401297162426
0.002534129109333651
0.003322336913085944
0.004088445363426061
0.004796604419406466
0.005432360743832224
0.005995924023038511
0.006488516258982339
0.006914308779387063
0.007279233830672183
0.007589866104100174
0.007852647644975232
0.008073513925137336
0.008257720850762242
0.008409797050075279
0.008533568250600016
0.008632215074036992
0.008708332192771846
0.008763969283376383
0.008800662594540766
0.008819562814813154
0.008821456651811837
0.008806973554692748
0.008776497724722086
0.008730194912373097
0.008667936943416088
0.008589342773045022
0.008493822937298735
0.008380608813316271
0.008248774035804258
0.008097256163000397
0.007924890859731715
0.007730479694598013
0.007512927220896252
0.007271501801876634
0.007006287527203745
0.006718872767148057
0.006413210430509294
0.006096331770223361
0.005778248031509592
0.005470232762886332
0.005181204473344165
0.004913031648431422
0.004666115759178833
0.004442344786966368
0.004243335095001714
0.004069657217520347
0.003920823729850809
0.003795403417470223
0.003691207194532563
0.00360549016550781
0.003535129114603947
0.003476755633814799
0.00342684440117598
0.003381769183238356
0.003337844641364468
0.003291370746206693
0.00323869026966751
0.003176260665015248
0.003100732414523151
0.003009019788779269
0.002898350105386538
0.002766286802737153
0.002610742470350102
0.002430033059935614
2.552743565015507e-07
6.046483489978146e-06
3.702470448737393e-05
0.0001254294657569111
0.0003112255217863765
0.000634978658038011
0.001122169352655246
0.001763546360226247
0.002510456909484444
0.003295463578914556
0.004060034936166732
0.004767906221852293
0.005403968162699679
0.005968518123969872
0.006462650634650005
0.006890412566453199
0.007257642270459519
0.007570846198529409
0.007836418932753133
0.00806025898793452
0.008247591961948875
0.008402921724507111
0.008530055655483187
0.008632162387629708
0.008711821981285443
0.008771032005316514
0.008811326300121151
0.008833767717649354
0.008839157298644785
0.008828131029753963
0.008801129171415092
0.00875833651915983
0.008699687108065282
0.008624833955899656
0.008533217463231739
0.008424100977932659
0.008296590186574434
0.008149649796653736
0.007982130621909186
0.007792825324057155
0.007580583138382554
0.007344532063654578
0.007084473821930264
0.006801509750347937
0.006498876834414985
0.006182757804413251
0.005862474505245694
0.005549214976326718
0.005252811241029528
0.004977240111816963
0.004722736116353753
0.004490691098086419
0.004282998045972185
0.004100550270184578
0.003943175947023182
0.003809710526769748
0.003698163265708665
0.003605919328365391
0.003529929061986042
0.003466856794493869
0.003413182974183117
0.003365269298166118
0.00331940437275066
0.003271847853507333
0.003218885635458645
0.003156899800175769
0.003082447472451462
0.002992335748468139
0.002883678785075925
0.002753931013915111
0.002600909919549025
0.002422855395464632
2.527406943928584e-07
5.975928607723295e-06
3.656311119091034e-05
0.0001238231770679966
0.0003072250369099908
0.0006269867722431123
0.001108766036316315
0.001744228582962382
0.002485950013698853
0.003267276876842285
0.004029765545559156
0.004736817534944565
0.005372864647552324
0.005937876503121695
0.006432951477648156
0.006862039106223753
0.007230898139269074
0.007545984934312693
0.007813671115092886
0.008039849664197109
0.008229754557449665
0.008387910515242238
0.008518154327339451
0.008623673541153863
0.008706994612270973
0.008770079131057793
0.008814299765024399
0.00884065687424976
0.008849942547829011
0.008842772728012935
0.008819617594988678
0.008780716849765592
0.008726043474930419
0.008655294028539358
0.008567901921014229
0.008463124404797625
0.008340078525546005
0.008197754600015398
0.008035031050914958
0.00785071326644564
0.007643625304037222
0.007412797812513798
0.007157813511727733
0.006879374207921625
0.006580097167962698
0.00626536792620374
0.005943746569663234
0.00562612624790239
0.005323047021689115
0.005040513232212634
0.004778782693352358
0.004538873602023959
0.004322914971406886
0.004132075841494246
0.003966469223848134
0.003825187373801892
0.003706442909793128
0.003607762632915148
0.003526182493425334
0.003458409224218376
0.003400935999114423
0.003350117637690037
0.003302221394978203
0.003253471836090788
0.003200104192710725
0.003138432249698722
0.003064927086015819
0.002976295250832565
0.002869542723681262
0.002742017533246354
0.002591441993371763
0.002415977537808364
2.499551154221669e-07
5.899976215748428e-06
3.607019315130669e-05
0.0001221141957886356
0.0003029774064452941
0.0006185094360224517
0.001094547526972495
0.001723713226908588
0.002459874897921811
0.003237216850993547
0.003997400537249242
0.004703492346907789
0.005339484993327776
0.005904897365788085
0.006400831126426531
0.006831118138135377
0.00720142022501608
0.007518135095998944
0.007787613362098509
0.008015756257980107
0.008207831454620932
0.008368417363327774
0.008501408625954526
0.008610008482434208
0.008696715723486409
0.008763410256736765
0.008811333495327417
0.008841476106074572
0.008854612236429594
0.008851331617465916
0.008832069930752475
0.008797137058190043
0.008746558351927405
0.008680089425130351
0.008597178084949961
0.008497036500639429
0.008378739713305522
0.00824126190604791
0.008083488306428771
0.007904236647943517
0.007702322840846773
0.007476714144421939
0.007226827745101859
0.006953038727577945
0.006657422377705801
0.006344612824292713
0.00602237810197903
0.005701202508720709
0.005392181051729581
0.005103168912347345
0.00483455417307522
0.004587108571628296
0.004363197973947597
0.004164255171777711
0.003990661319051553
0.00384175418452545
0.003715947430686635
0.003610914134890094
0.003523783510929153
0.003451312251938629
0.003390012322436275
0.003336236311730177
0.003286234162254103
0.003236199664547196
0.003182322519872924
0.003120854186679212
0.003048186031542755
0.002960929947895947
0.002855988288060232
0.002730605146552008
0.002582407696144796
0.002409476748710199
2.46846353614418e-07
5.81704378818353e-06
3.553655700707069e-05
0.0001202713139128464
0.0002984072253073474
0.000609401007317338
0.001079282490909359
0.001701696871124891
0.002431904817698084
0.003205005086244233
0.003962787411994634
0.004667964499560678
0.00530405067837991
0.005870060487175145
0.006367106041475466
0.00679887803550458
0.007170913952287214
0.00748952737900913
0.007761025874269563
0.007991300364095073
0.008185635639438207
0.008348646338628628
0.008484264606282417
0.008595691910854285
0.008685440641270357
0.008755294555401978
0.008806494450418312
0.008840026501533694
0.008856655491121957
0.008856956365512552
0.008841344398484254
0.008810104745550194
0.008763395422254792
0.008700995403841833
0.008622439513228039
0.008526915076848289
0.008413432922959478
0.008280908489104314
0.008128192051021556
0.007954086475115998
0.007757392533429924
0.007537028136919788
0.007292278809085587
0.007023243482083308
0.00673151559923243
0.006421035623525064
0.006098816762386035
0.005774906850402232
0.005460736431141727
0.005165355385413351
0.004890087946610544
0.004635552995689009
0.004404037526641091
0.004197257873434541
0.004015878778732971
0.003859493127827434
0.003726722431555149
0.003615392500537106
0.003522732338791357
0.003445554542498164
0.003380394671830972
0.003323606806854092
0.003271426783875547
0.003220021034586352
0.003165537876848224
0.003104171424420377
0.003032238793159525
0.002946262460001456
0.002843045321980196
0.002719729893705371
0.002573848296949894
0.002403398473029233
0.00220702431775496
0.001984455079680281
0.001737423637038956
0.001473638849797073
0.001208290088331458
0.0009529167603120373
0.0007159703892903303
0.0005081903984442573
0.0003353407039138484
0.0001978801350845378
0.0001057634518596378
5.07620891732864e-05
2.047674921837619e-05
6.970772330189039e-06
2.077654611021104e-06
5.609907901047097e-07
1.481900488877622e-07
4.804542841626092e-08
2.579493479538944e-08
2.081645634473233e-08
2.435537580090106e-07
5.730753754193285e-06
3.498522299093178e-05
0.0001183730942815472
0.0002937055397458506
0.000600029754216719
0.001063557557572808
0.0016789684893984
0.002402956009404127
0.003171585771581799
0.003926813415432394
0.004631012247546178
0.005267207357225718
0.005833859044042052
0.006332139991463062
0.006765602884722503
0.007139650771499284
0.007460495610270755
0.007734378096600455
0.007967148273963177
0.008164070374559046
0.008329752696090152
0.008468127532160677
0.008582391550306864
0.00867506096498254
0.008747895826028911
0.008802143961618148
0.008838796676506323
0.008858621919610199
0.008862195829752709
0.008849933128757708
0.008822117381283577
0.008778932550382802
0.008720254269294282
0.008645670972664537
0.008554418462412545
0.008445483463520278
0.008317726122206359
0.008169940529115544
0.008000886078181958
0.007809327194611248
0.007594127342414627
0.007354454897716097
0.007090168429050141
0.006802438696179336
0.006494590986157316
0.0061729454398882
0.005847058572369971
0.005528410561779665
0.005226827577265909
0.004945188058648811
0.004684011393607938
0.004445270379721602
0.004230953717037192
0.004042013719940101
0.003878309219878664
0.003738681095193607
0.003621117805291835
0.003522956048949537
0.003441070360072532
0.003372024362255973
0.003312177006785981
0.003257752964624525
0.003204894484730435
0.0031497124039431
0.00308834825385115
0.003017050235802757
0.002932256682708126
0.002830675431801709
0.002709350172415321
0.002565718614395635
0.002397694564464772
0.002203847876799095
0.001983828228896525
0.001739262418495757
0.001477415039290143
0.001213253760766032
0.0009586611072313503
0.000722031609256058
0.0005140098034330432
0.0003406003067678383
0.0002021245578155308
0.0001084918111833645
5.231054696854343e-05
2.126283241449811e-05
7.297678114791493e-06
2.190169281028875e-06
5.944147738570136e-07
1.569551818962895e-07
5.011919008752914e-08
2.626605352404695e-08
2.094140763653759e-08
1.942527831058971e-08
1.894015138979011e-08
2.003618647932669e-08
2.816493372960526e-08
7.190390676316768e-08
3.016339633748479e-07
1.5231478175326e-06
8.171555885953979e-06
4.631833569723952e-05
0.0002786376145208981
0.001579745513968223
0.007231022924322475
0.02486879573721679
0.06621642059632679
0.1572522236549687
0.4298430155967816
2.402740291607917e-07
5.645862342097309e-06
3.444550430879695e-05
0.0001165181329253897
0.0002891096525531733
0.0005908470858349088
0.001048074745023065
0.001656430688127494
0.002373993347589704
0.003137809837745263
0.003890054739070884
0.004592815996407698
0.005228661920641879
0.00579550384435814
0.006294607078074689
0.006729409618333067
0.007105196025046225
0.007428084895546233
0.007704251188490502
0.0079394992999579
0.008139064768626613
0.008307541250153962
0.008448852233922827
0.008566164051032095
0.008661992214284101
0.008738005010398568
0.008795462118393117
0.00883536270057959
0.008858479960771878
0.008865393395338907
0.008856519249826379
0.008832140123368431
0.008792434948293744
0.008737370258755858
0.008666571047928126
0.008579349102959939
0.008474701976971024
0.008351465248601385
0.008208393383135622
0.008044203371595192
0.0078576157763401
0.007647434350883172
0.007412718469444834
0.007153118123450267
0.006869443241448125
0.006564485052916218
0.006243919021161548
0.005916737789781058
0.005594257299986139
0.005286913357108294
0.004999267017594758
0.004731830877848136
0.004486252822341832
0.004264755381998899
0.00406855446134483
0.003897767671814145
0.003751458804928145
0.003627786798183825
0.003524204172629871
0.003437654152969195
0.003364733552513485
0.003301810130390054
0.003245100833427573
0.0031907273653991
0.003134767416253445
0.003073315131924024
0.003002555626721331
0.002918848963849619
0.002818813052696702
0.002699396367838573
0.002557943774145959
0.002392284517171333
0.002200912405481336
0.001983396745579581
0.001741260865578525
0.001481352772037207
0.001218353893816981
0.0009645022059884834
0.0007281825520836885
0.0005199062629392464
0.000345919473020525
0.0002064412209499692
0.0001112946792905814
5.391227841785116e-05
2.208090905780631e-05
7.641165242983937e-06
2.309552383305203e-06
6.301679521832488e-07
1.663959887181495e-07
5.2363548989398e-08
2.677447183701514e-08
2.107298302319865e-08
1.947731347416468e-08
1.896808803689249e-08
2.003688508599189e-08
2.807400530017288e-08
7.139722545251139e-08
2.991155387050904e-07
1.510776042976238e-06
8.112660421017037e-06
4.610257997445637e-05
0.0002788831688560754
0.001589601958229723
0.007289664369046593
0.02503613555693906
0.06654498986045422
0.1579122655864311
0.431692697460666
2.369197327828943e-07
5.55984398199124e-06
3.390068868900102e-05
0.0001146482900251163
0.0002844759630528328
0.0005815696722605167
0.001032363677477037
0.001633405948240021
0.002344145050013049
0.003102640647757554
0.003851331660892655
0.004552053410498413
0.005186938168266766
0.005753388548175141
0.006252717608879519
0.006688249918912201
0.00706516519774002
0.007389508830608625
0.007667416059139765
0.007904678575033032
0.0081065426812443
0.008277624187606317
0.008421836586028344
0.008542329417914335
0.008641497603138912
0.008720914950447878
0.008781849192802785
0.008825300771913906
0.008852038735406669
0.008862633398588671
0.008857486144804257
0.008836857011532178
0.008800890760860937
0.008749641514294991
0.008682791516287008
0.008599726430111677
0.008499466321941597
0.008380814555032515
0.008242485904615338
0.008083163280501807
0.007901533749031693
0.007696351918550206
0.007466584725282253
0.007211706092676343
0.006932218618762368
0.006630440675221724
0.006311433795354705
0.005983590937543263
0.005657982791731027
0.005345567204710017
0.005052286760620361
0.004778830734688668
0.004526711870558343
0.004298351162966541
0.004095190357618748
0.003917580981230644
0.003764799922591478
0.00363517715519427
0.003526286323018524
0.003435145519432642
0.003358390056952867
0.003292400678083459
0.003233390117295031
0.003177463049449436
0.003120668078586678
0.00305905680614546
0.002988756739957877
0.002906055306386165
0.002807485560807275
0.002689904533659299
0.002550566167210281
0.002387215140809511
0.002198267703909547
0.001983212026026822
0.00174346963528279
0.001485487031636274
0.001223632055156627
0.0009704886564279092
0.0007344533594044588
0.0005259027994144679
0.0003513147482522036
0.0002108400187872845
0.0001141787068728549
5.557146733848959e-05
2.293331405981854e-05
8.002390400830071e-06
2.436307160588626e-06
6.684335138837149e-07
1.765689067558478e-07
5.47936586075539e-08
2.732379994731401e-08
2.121196509098481e-08
1.95300151637381e-08
1.89955469879789e-08
2.00368417099516e-08
2.798154637097389e-08
7.088502315280509e-08
2.965721174883706e-07
1.498279915949005e-06
8.053051796843645e-06
4.588161413457094e-05
0.0002790922934548071
0.001599288447540861
0.007347590022566387
0.025201147413341
0.06686951242282339
0.1585694631746559
0.4335497551253168
2.331934092007778e-07
5.465310660085101e-06
3.330468476494839e-05
0.0001126077025854626
0.000279428294227168
0.0005714798598743421
0.001015301866816262
0.001608434370820749
0.002311816136252141
0.003064608531127385
0.003809532795992626
0.004508135739993229
0.005142065561890441
0.00570820223319664
0.006207841820821057
0.006644154171344168
0.007022188791153824
0.007347907738823349
0.007627410217261178
0.00786649004309232
0.008070424802379498
0.008243869412030268
0.008390729215657363
0.00851416824106445
0.008616412287810897
0.008699039267948773
0.008763317250621681
0.008810242790392112
0.008840576232739908
0.008854873728102607
0.008853516270893782
0.008836736403230789
0.00880464340531107
0.00875724794648809
0.008694426359495199
0.008615582782252185
0.008519837349722439
0.008405951719123953
0.008272562231956019
0.008118285555634196
0.007941762128068552
0.007741701753714997
0.007516996504636791
0.007266973543972167
0.006991867539343402
0.006693565151711983
0.00637654146942098
0.006048590900678418
0.005720502732065024
0.005403643038666767
0.005105088640584307
0.004825805632994891
0.004567319795137819
0.004332271277829209
0.004122322923136117
0.003938046298554122
0.003778920620057181
0.003643443048348797
0.003529309816394553
0.003433617618789763
0.003353044047241019
0.00328398579225038
0.003222653648817278
0.003165137394636033
0.003107459086165483
0.00304563102135733
0.002975726993612902
0.002893965953690496
0.002796799927313059
0.002680997321704486
0.002543722447353498
0.002382635017081214
0.002196072002926958
0.00198343966903178
0.001746068590594491
0.001489978868181761
0.00122922918681581
0.0009767531829540999
0.0007409562146122669
0.0005320891044215696
0.0003568539903227186
0.000215369026085412
0.0001171749513696909
5.730597851996825e-05
2.382939216072121e-05
8.385490294697266e-06
2.571974310211834e-06
7.097019549555142e-07
1.876098773454574e-07
5.744291412137936e-08
2.792143488367264e-08
2.135989132739998e-08
1.958372679505497e-08
1.902262982950062e-08
2.003605791286634e-08
2.788734278161202e-08
7.036629470213469e-08
2.93999608757857e-07
1.485643524774148e-06
7.992670122698266e-06
4.565519455732082e-05
0.0002792637564130007
0.001608800125799744
0.007404789312892081
0.02536385184490314
0.06719085326135196
0.1592203633222296
0.4354120538294557
2.291075532133514e-07
5.36300155786616e-06
3.266323907937527e-05
0.0001104177157719637
0.0002740222563420888
0.0005606964656152022
0.0009971137384000067
0.001581902936893268
0.002277622652983746
0.003024628308961444
0.003765943717526835
0.004462793981532638
0.005096279839383713
0.005662667254100857
0.006163274876327534
0.006601087466449743
0.006980981608670078
0.007308791690932904
0.007590535415463207