/*--------------------------------*- C++ -*----------------------------------*\
| =========                 |                                                 |
| \\      /  F ield         | OpenFOAM: The Open Source CFD Toolbox           |
|  \\    /   O peration     | Version:  v1812                                 |
|   \\  /    A nd           | Web:      www.OpenFOAM.com                      |
|    \\/     M anipulation  |                                                 |
\*---------------------------------------------------------------------------*/
FoamFile
{
    version     2.0;
    format      ascii;
    class       volScalarField;
    location    "1792";
    object      nut;
}
// * * * * * * * * * * * * * * * * * * * * * * * * * * * * * * * * * * * * * //

dimensions      [0 2 -1 0 0 0 0];


internalField   nonuniform List<scalar> 
11121
(
2.047924925487011e-13
2.538532157830787e-11
4.362375523786676e-10
3.023853454547117e-09
1.273582948409238e-08
3.885866194316593e-08
9.370688086000963e-08
1.882919957484582e-07
3.282138431341295e-07
5.134388228411514e-07
7.410277413987451e-07
9.991150436062189e-07
1.285365988850859e-06
1.611554993638153e-06
1.981575598672877e-06
2.397901534256386e-06
2.86225009834728e-06
3.376884954153878e-06
3.943728567749025e-06
4.564559362393125e-06
5.241028271717927e-06
5.974629563476236e-06
6.766658219666679e-06
7.618160124820002e-06
8.529872023176095e-06
9.50215573859219e-06
1.05349310518083e-05
1.162760820439926e-05
1.277902635723356e-05
1.398740839796332e-05
1.525034927547726e-05
1.656486811982237e-05
1.792757900865921e-05
1.933508044237163e-05
2.078474316417015e-05
2.22762031209867e-05
2.381404769663015e-05
2.541239635392101e-05
2.710223717072717e-05
2.894233579508322e-05
3.103383176760812e-05
3.353640393144319e-05
3.667779126815944e-05
4.073261906451152e-05
4.591042939645607e-05
5.203638708175128e-05
5.791752116715919e-05
6.381706469546733e-05
7.049294272839489e-05
7.799455726414347e-05
8.634045440834548e-05
2.042091882636763e-13
2.521666485304044e-11
4.325831279951331e-10
2.996293503317717e-09
1.26179454150925e-08
3.851235969733969e-08
9.294155927902131e-08
1.869419437768802e-07
3.262126748893957e-07
5.108312185220612e-07
7.379400929785041e-07
9.964192716978991e-07
1.282598390842855e-06
1.608749893154878e-06
1.97889244011772e-06
2.395566677552112e-06
2.86054317485533e-06
3.376144044446717e-06
3.944354623734305e-06
4.567023484031807e-06
5.245881597524889e-06
5.982515878789132e-06
6.77832964247213e-06
7.63449622882826e-06
8.551902769224095e-06
9.531088151286085e-06
1.057217899708157e-05
1.167482377179848e-05
1.283812979026003e-05
1.406061096391664e-05
1.534015915308863e-05
1.667406216858131e-05
1.805911101904201e-05
1.949187566544229e-05
2.096929512729879e-05
2.248983940012126e-05
2.405567112148244e-05
2.567646165884782e-05
2.737574690562609e-05
2.920077552129341e-05
3.123630314916374e-05
3.362088380652293e-05
3.655930893405083e-05
4.031409448860515e-05
4.513782940347103e-05
5.107164215194339e-05
5.748257124052577e-05
6.320826780012375e-05
6.969141400649714e-05
7.698953518600209e-05
8.513219146633291e-05
9.411155906354579e-05
2.034892582392213e-13
2.503525213635647e-11
4.287465656870725e-10
2.967594956744219e-09
1.249547958724224e-08
3.815212211991177e-08
9.214192478139251e-08
1.855211533278831e-07
3.240857392505938e-07
5.080242828447508e-07
7.345620539186218e-07
9.933191445666569e-07
1.279314940151689e-06
1.605312554802867e-06
1.975456235101893e-06
2.392354605018807e-06
2.857847488823578e-06
3.374307947375611e-06
3.943788428380409e-06
4.568207722717039e-06
5.249372585851785e-06
5.98895326834455e-06
6.78844632339633e-06
7.649131210676117e-06
8.572017743834825e-06
9.557788035098681e-06
1.060673633371172e-05
1.171870616722843e-05
1.289302845887918e-05
1.412846641298992e-05
1.542317690688782e-05
1.67747057030431e-05
1.818004914954844e-05
1.963584513369393e-05
2.113881280446097e-05
2.26866594411901e-05
2.427982986694459e-05
2.592468931666851e-05
2.763896111880114e-05
2.946034796372262e-05
3.145895956132758e-05
3.375294441105036e-05
3.652368137214863e-05
4.001996686185276e-05
4.452426273300788e-05
5.021575426617248e-05
5.67934357549844e-05
6.267696399394189e-05
6.897844136645126e-05
7.608165732008229e-05
8.402593168570338e-05
9.281556240496267e-05
0.0001024121236031357
2.025684475272088e-13
2.483028232302356e-11
4.245207344618115e-10
2.93627774493265e-09
1.236234358855912e-08
3.77607454603438e-08
9.127156204845022e-08
1.839683110420274e-07
3.217461021010688e-07
5.049080820786856e-07
7.307629154734993e-07
9.89669694949705e-07
1.275316830487112e-06
1.600963309087899e-06
1.970877356037272e-06
2.38773507333779e-06
2.853446045802605e-06
3.370437708470314e-06
3.940835494704196e-06
4.566635179338248e-06
5.249726226874116e-06
5.991867862861135e-06
6.794652326954092e-06
7.65946246374253e-06
8.5874209323474e-06
9.579334698311756e-06
1.06356381699687e-05
1.175633389614211e-05
1.294093361155932e-05
1.418840393948475e-05
1.549712377344983e-05
1.686486630428992e-05
1.828883082469268e-05
1.97657739996637e-05
2.129233777786344e-05
2.286575550919319e-05
2.448525442518709e-05
2.615466880239343e-05
2.788701379147813e-05
2.971196634790033e-05
3.168716886993958e-05
3.391360350887537e-05
3.655302385891869e-05
3.983919179626263e-05
4.405895499069606e-05
4.944484525047308e-05
5.586688455075271e-05
6.219942179887407e-05
6.83297002434017e-05
7.52459568383159e-05
8.299631984872296e-05
9.159643380052474e-05
0.0001010205172252901
0.0001111964918107434
2.014427708406095e-13
2.460237618641097e-11
4.199261245457247e-10
2.902537001578398e-09
1.221962938663477e-08
3.734265157572719e-08
9.034433295599805e-08
1.823182192007888e-07
3.19266294205672e-07
5.016132418068074e-07
7.267536250044612e-07
9.85844201554831e-07
1.271101378623085e-06
1.596321676235968e-06
1.965896464736759e-06
2.382560787946722e-06
2.848286371730599e-06
3.365542720071503e-06
3.936520634607957e-06
4.56328791364114e-06
5.247815293678674e-06
5.991953305870498e-06
6.797395379921572e-06
7.665634919232292e-06
8.597913844657293e-06
9.59516653517322e-06
1.06579629778595e-05
1.178645027164357e-05
1.298029526662568e-05
1.423863184939593e-05
1.556001819685966e-05
1.694241337181298e-05
1.838319178992496e-05
1.987923381833005e-05
2.142716924307535e-05
2.302392160440465e-05
2.466782211296354e-05
2.636074725306243e-05
2.811198199990346e-05
2.994476516324138e-05
3.190655601754497e-05
3.408355046343549e-05
3.661801474350567e-05
3.972201990961809e-05
4.367036591206913e-05
4.873408301018423e-05
5.497663038817826e-05
6.177295950567548e-05
6.774533695476831e-05
7.448527295008627e-05
8.204894865328642e-05
9.046262365694685e-05
9.971279077098814e-05
0.0001097396737702204
0.0001204362097234583
0.0001316535271269996
0.0001432123447038973
0.0001549181601467768
0.000166576948972085
0.0001780078621912312
0.0001890500468297996
0.0001995620638675793
0.0002094140808363509
0.0002184746812605872
0.0002265954320487987
0.0002335970549552607
2.001881094660969e-13
2.43642653854883e-11
4.152048697532189e-10
2.868081115089059e-09
1.207422612759646e-08
3.691677800816112e-08
8.939905874951491e-08
1.806343861294659e-07
3.167352892887463e-07
4.982547398053515e-07
7.226804317221352e-07
9.820352672768343e-07
1.266963672943698e-06
1.591830694121544e-06
1.961153741760753e-06
2.377722180152264e-06
2.843563123093186e-06
3.361172690742069e-06
3.932789873144596e-06
4.560534706326429e-06
5.24643831588252e-06
5.992422499617686e-06
6.800264825432732e-06
7.67155710430371e-06
8.607654786304334e-06
9.609621197621668e-06
1.067817035662205e-05
1.181360627805951e-05
1.301576084867897e-05
1.428393498688366e-05
1.561685111283823e-05
1.701262627591101e-05
1.84687787675927e-05
1.99822946285689e-05
2.154981251997869e-05
2.316804746566774e-05
2.483468284832901e-05
2.655013250764461e-05
2.832081199676488e-05
3.016481201240532e-05
3.212098777181996e-05
3.426215180005212e-05
3.671174236481364e-05
3.966008374807363e-05
4.336895415974536e-05
4.813561887699644e-05
5.414638540406957e-05
6.107400487477351e-05
6.723105701388642e-05
7.380386553346568e-05
8.118864803473083e-05
8.942063023471552e-05
9.849757855477686e-05
0.0001083717478229771
0.0001189469124352733
0.0001300819272314299
0.0001416007609374115
0.0001533072401188576
0.000165001369280725
0.0001764935370238983
0.0001876133318745173
0.000198210946751888
0.000208150900377045
0.0002172996172268816
0.0002255099000346916
0.00023260622404708
0.0002383749179430652
1.988621218031623e-13
2.412232644095705e-11
4.104576112000981e-10
2.833531138628756e-09
1.192821014900095e-08
3.64869158890539e-08
8.843680993593899e-08
1.789007776665378e-07
3.140939493760231e-07
4.946960375842153e-07
7.182911794564949e-07
9.777071941741921e-07
1.262176546979138e-06
1.586586512949201e-06
1.95558065775158e-06
2.37201250195418e-06
2.837976123858532e-06
3.356002030675156e-06
3.928381598425347e-06
4.557284403270385e-06
5.244792255766394e-06
5.992883358911516e-06
6.80340397589267e-06
7.678034247358487e-06
8.618239879031634e-06
9.625201529161801e-06
1.069971689422131e-05
1.184213161614664e-05
1.305235470739454e-05
1.432987735929632e-05
1.567370382407415e-05
1.70822334567582e-05
1.855319944059006e-05
2.008370837029883e-05
2.167040542609589e-05
2.330984029649736e-05
2.499921216027114e-05
2.673783321164349e-05
2.852987319963818e-05
3.038920692145125e-05
3.234739305527506e-05
3.446576668863426e-05
3.685190475618049e-05
3.967830975310522e-05
4.319437599451543e-05
4.770501841981432e-05
5.344918556449537e-05
6.02465364045106e-05
6.677212563257657e-05
7.31884482605439e-05
8.040279987638589e-05
8.845871717460022e-05
9.736451928325359e-05
0.0001070841284320764
0.0001175323752671096
0.0001285766586430312
0.0001400454351408177
0.0001517422323498491
0.0001634622820832419
0.0001750080029593878
0.0001861997093341328
0.0001968790368913435
0.0002069043318654767
0.0002161391936030846
0.0002244370454041411
0.0002316257047069403
0.0002374962317118552
0.0002417997622244567
1.972685232284109e-13
2.385008215827065e-11
4.052172027795801e-10
2.795706190826542e-09
1.176906628083859e-08
3.601947442251786e-08
8.739070525998028e-08
1.770121565533945e-07
3.112020351554466e-07
4.907655251468315e-07
7.133765334877693e-07
9.726094282251881e-07
1.256316548438433e-06
1.579898499674065e-06
1.948120663444963e-06
2.363904166062139e-06
2.82941863510437e-06
3.347250486499583e-06
3.919775642815171e-06
4.549257504641816e-06
5.23788747710568e-06
5.987768747924137e-06
6.8008609930445e-06
7.678838494903229e-06
8.62274201771003e-06
9.632243617357467e-06
1.070437788730025e-05
1.185078256446056e-05
1.307377699699567e-05
1.436754915963982e-05
1.572468442317758e-05
1.714569779389904e-05
1.862992871476408e-05
2.01755254855319e-05
2.177965541540887e-05
2.343893739527294e-05
2.515019066509073e-05
2.691175196856387e-05
2.872584037632176e-05
3.060274339207677e-05
3.256790642214525e-05
3.467315564426837e-05
3.701281306282109e-05
3.974328831878048e-05
4.309849549082901e-05
4.737844439824079e-05
5.285677052087335e-05
5.949886797379892e-05
6.633348926347409e-05
7.260342064512333e-05
7.965473445000356e-05
8.753901204217218e-05
9.627483248201916e-05
0.0001058376911159628
0.0001161537792523348
0.000127099810061992
0.0001385098604120582
0.0001501884208499593
0.0001619270645527924
0.0001735209792470134
0.0001847814575845979
0.0001955413652084308
0.0002056523272991352
0.0002149744210263451
0.000223361036524603
0.0002306428758552459
0.0002366155538173053
0.0002410348254503168
0.0002436220177593809
0.0002440797178655582
1.952558097555505e-13
2.35312465152392e-11
3.992272907835703e-10
2.752992948946756e-09
1.159106094479757e-08
3.550191712176481e-08
8.624646911297958e-08
1.749766935930376e-07
3.081388106658963e-07
4.866813850068439e-07
7.083716952055841e-07
9.677545455153357e-07
1.250776126216325e-06
1.573508914636777e-06
1.940843484642845e-06
2.355743538805442e-06
2.820425859098168e-06
3.337505643517591e-06
3.909425414419061e-06
4.538533038067497e-06
5.227123025718232e-06
5.977405222718595e-06
6.79140291376839e-06
7.670705246152777e-06
8.61591865833693e-06
9.625608874699894e-06
1.06996558482129e-05
1.184942924665892e-05
1.307686627615989e-05
1.438336739512197e-05
1.57534390901559e-05
1.718663444708822e-05
1.868305390537613e-05
2.024162313337651e-05
2.186017256711079e-05
2.353571791218573e-05
2.526504989946446e-05
2.704585170102755e-05
2.887875585261687e-05
3.077104131381327e-05
3.274300900404209e-05
3.483827271542594e-05
3.71388075697845e-05
3.978374335501108e-05
4.298612727168973e-05
4.703171280359709e-05
5.222312637616244e-05
5.869073261159724e-05
6.591370030110719e-05
7.204490645592028e-05
7.894009593358044e-05
8.665749433512795e-05
9.522506065633225e-05
0.0001046295393526095
0.0001148086948129065
0.0001256492697033349
0.0001369920569043659
0.0001486437665625253
0.0001603934649668486
0.0001720299234298479
0.0001833557579508898
0.0001941949366369027
0.0002043918738309726
0.0002138024516126144
0.0002222793642627536
0.0002296557068627425
0.0002357314247854419
0.0002402669525352141
0.0002429870138730008
0.0002435950481133529
0.0002417949463051526
0.0002373115570705994
1.930448443179376e-13
2.319635367080956e-11
3.93029432588078e-10
2.70906610347498e-09
1.140848406434072e-08
3.497180559868332e-08
8.507669566569048e-08
1.72904884041917e-07
3.050486966121882e-07
4.826249830727722e-07
7.035197108121952e-07
9.635395590365094e-07
1.246274945111416e-06
1.568611831761239e-06
1.935582289683308e-06
2.350175356364158e-06
2.814625919475415e-06
3.331520926346999e-06
3.903300018329308e-06
4.532313056736374e-06
5.220867451421341e-06
5.971201503431217e-06
6.785392313209933e-06
7.665138919008186e-06
8.611292999472106e-06
9.622956336830416e-06
1.069918312112272e-05
1.185179328870457e-05
1.308285354764825e-05
1.439389325623979e-05
1.577180433185199e-05
1.721452206963353e-05
1.872180971192043e-05
2.029240507899591e-05
2.192412244653812e-05
2.361405353715506e-05
2.535897942352022e-05
2.715622001872942e-05
2.900532406942484e-05
3.091125506190464e-05
3.289002700638738e-05
3.497794869342031e-05
3.724541963720257e-05
3.981498881164422e-05
4.288003610035063e-05
4.67123899068337e-05
5.1627819795213e-05
5.783481624009951e-05
6.502218113357671e-05
7.154397309196022e-05
7.828789807313461e-05
8.584399507823986e-05
9.424729664370912e-05
0.0001034944061324425
0.0001135341440815192
0.0001242635405689722
0.0001355309626020965
0.0001471465432255702
0.000158898091740483
0.0001705689835289806
0.0001819537623219911
0.0001928676265966762
0.0002031474953104069
0.0002126445108819719
0.0002212100565257172
0.0002286791109171361
0.0002348556715689472
0.0002395048566437491
0.0002423550439489306
0.0002431109353587235
0.000241474611953988
0.000237166253327677
1.908636541149791e-13
2.287202767175464e-11
3.870624162528554e-10
2.666795256909605e-09
1.123213606028899e-08
3.445577301050041e-08
8.392485436060328e-08
1.708358622041995e-07
3.019154532829011e-07
4.784510950962548e-07
6.984632847777683e-07
9.589695153060532e-07
1.241452805333298e-06
1.56355374558654e-06
1.930460909402942e-06
2.345214258310103e-06
2.810091769147272e-06
3.327660079178171e-06
3.900353241518967e-06
4.530512209633526e-06
5.220445602672746e-06
5.972403390338796e-06
6.788426836246644e-06
7.669910861480312e-06
8.616571874539951e-06
9.624492049760725e-06
1.070336098934952e-05
1.185917890427609e-05
1.30941450226276e-05
1.44099495841011e-05
1.580027897580005e-05
1.725274237511793e-05
1.876930940853507e-05
2.035019342985051e-05
2.199392676094699e-05
2.369774839893748e-05
2.545822226484141e-05
2.727215302546582e-05
2.913811154919915e-05
3.105917924730014e-05
3.304784392661871e-05
3.513423844712528e-05
3.737887194588981e-05
3.989013240546109e-05
4.284398189257966e-05
4.649587761516434e-05
5.115789130660699e-05
5.707990346341262e-05
6.412384230922284e-05
7.110262312067864e-05
7.770509481173046e-05
8.510753216861465e-05
9.335211326616397e-05
0.0001024446470965066
0.0001123444458931613
0.0001229587647917461
0.0001341440811391658
0.0001457149514180312
0.0001574591254509888
0.0001691556810048211
0.0001805918544487019
0.0001915743908183621
0.0002019325968076059
0.0002115124452280684
0.0002201634415466546
0.0002277219258545116
0.0002339956145073641
0.0002387542443805639
0.0002417300516820811
0.0002426293993374008
0.0002411530201906682
0.0002370168286685089
1.886399484790121e-13
2.254710394308684e-11
3.811200748731746e-10
2.624759101921343e-09
1.105642890069522e-08
3.393871459431819e-08
8.275924390468359e-08
1.687113889513773e-07
2.986347791488887e-07
4.739697745642476e-07
6.928575670697125e-07
9.526273250023111e-07
1.235081010792721e-06
1.556716460106291e-06
1.923243124285699e-06
2.337866574549392e-06
2.802980206906013e-06
3.321206466011335e-06
3.895058886573637e-06
4.526958998540321e-06
5.219280126194164e-06
5.974212547820033e-06
6.793256568516543e-06
7.675884694570869e-06
8.616679563549793e-06
9.623591500357567e-06
1.070538249304481e-05
1.186472648332238e-05
1.310396118297359e-05
1.442496394055434e-05
1.582900693252592e-05
1.730156871605327e-05
1.883056924766008e-05
2.042081954104784e-05
2.207417863201477e-05
2.378972409562286e-05
2.556456977247417e-05
2.739513327313766e-05
2.927889630566133e-05
3.121707737105433e-05
3.321906381755317e-05
3.530982527849502e-05
3.754161125398587e-05
4.001050952515185e-05
4.287592539345035e-05
4.637498666170664e-05
5.081114766628226e-05
5.647095307473695e-05
6.337541569710155e-05
7.07019059367738e-05
7.717375615399803e-05
8.443076683052898e-05
9.252240173994281e-05
0.0001014634995215941
0.0001112235946225209
0.0001217201236709061
0.0001328180529204722
0.0001443371585814565
0.0001560661688558035
0.0001677808850997787
0.0001792620022031663
0.0001903081792538815
0.000200741061927262
0.0002104010810490029
0.0002191353277995743
0.0002267809782485142
0.0002331491003372269
0.0002380139298436092
0.0002411117049885862
0.00024215079885012
0.0002408310357142196
0.0002368644763040861
1.862456488194955e-13
2.220514658071764e-11
3.749193158494609e-10
2.581070426275232e-09
1.087420800351445e-08
3.340291811008213e-08
8.155050430965599e-08
1.665024044793891e-07
2.952058284868527e-07
4.692455508367919e-07
6.868696808939148e-07
9.454700772084152e-07
1.227697400155881e-06
1.548478545816912e-06
1.914115175111613e-06
2.328000772194677e-06
2.792668323506521e-06
3.3108424991518e-06
3.885179391250166e-06
4.518242643867197e-06
5.21247508299199e-06
5.969821967550032e-06
6.790597182243502e-06
7.670779309101185e-06
8.607256639928692e-06
9.616179333516335e-06
1.070053028642256e-05
1.186308054587925e-05
1.310629235671105e-05
1.443220653267421e-05
1.584231191035874e-05
1.733739713373572e-05
1.889102414952837e-05
2.049546447459854e-05
2.215822101002236e-05
2.388268849684599e-05
2.566854514479645e-05
2.751307657517631e-05
2.941322799030787e-05
3.136851880874179e-05
3.338541677967869e-05
3.548423205725349e-05
3.770980490440167e-05
4.014677834391718e-05
4.293840107635892e-05
4.630355534760451e-05
5.053763469037198e-05
5.596169802760033e-05
6.273255795541566e-05
7.03223472253118e-05
7.667244901153408e-05
8.379146611096833e-05
9.173550244063054e-05
0.0001005280684377738
0.000110148764155065
0.000120525280290176
0.0001315314565384464
0.0001429929927552476
0.0001547005041521204
0.0001664274263039137
0.0001779486138444885
0.0001890549878691095
0.0001995604934616934
0.0002092996653059024
0.0002181166560359382
0.000225848949865116
0.0002323105791092323
0.0002372801226538201
0.0002404979179264552
0.0002416746495397848
0.000240509635623898
0.0002367114732911242
1.836307453994885e-13
2.184072616135849e-11
3.683738261100357e-10
2.535181117358197e-09
1.068352359383307e-08
3.284431937160014e-08
8.029567128393732e-08
1.642207659182262e-07
2.916847619691919e-07
4.644242997041721e-07
6.80793427384957e-07
9.382379521864246e-07
1.220350149346384e-06
1.540206644988447e-06
1.904768889529727e-06
2.317608481662779e-06
2.781372581064367e-06
3.2988616954124e-06
3.872845966491158e-06
4.505996023325872e-06
5.200784484411888e-06
5.958912215646766e-06
6.779721658192013e-06
7.656572960763701e-06
8.593949489848289e-06
9.60422433234616e-06
1.06904584266991e-05
1.185551544075886e-05
1.310196992565147e-05
1.443200076646651e-05
1.584726712183639e-05
1.734876438939187e-05
1.893323764636772e-05
2.055745182565897e-05
2.223258903941541e-05
2.396585870525936e-05
2.576019196296097e-05
2.761498867150285e-05
2.952787572535201e-05
3.149754223537855e-05
3.352803425374982e-05
3.56352899703359e-05
3.785701582703998e-05
4.026693906541564e-05
4.299353216082028e-05
4.624041699715e-05
5.029743799970029e-05
5.550787138031386e-05
6.209800356058976e-05
6.967344672032673e-05
7.619518624138456e-05
8.318058759023522e-05
9.098126352218285e-05
9.962794733717846e-05
0.0001091096391649624
0.0001193641812658355
0.000130274623652572
0.0001416732641544168
0.0001533534745206853
0.000165087200256833
0.0001766441437808138
0.0001878078488757798
0.0001983845491182948
0.0002082025579168675
0.0002171025812189225
0.0002249218804714429
0.0002314770429470011
0.0002365507982638726
0.0002398876371803022
0.0002412008171400534
0.0002401895258026524
0.0002365593012414376
0.0002300313262866104
0.0002203135110139254
0.0002070173123251953
0.0001893534927895021
0.0001679169988600434
0.0001450562982028034
0.0001223019220661278
0.0001000923497530224
7.801771167716622e-05
4.973782216872057e-05
3.323404715199979e-05
2.004356583897972e-05
8.96082055596665e-06
3.247980466566052e-06
1.00803802975697e-06
2.80680565822758e-07
7.611142662955913e-08
2.52651984094991e-08
1.386055539695116e-08
1.140849724189519e-08
1.809095200805901e-13
2.146925269152739e-11
3.617554445420086e-10
2.488959007809279e-09
1.049191058213314e-08
3.228417005557773e-08
7.904082445979792e-08
1.619492429748215e-07
2.88204080916603e-07
4.597072851930339e-07
6.749297303664326e-07
9.313782665536495e-07
1.213818084215169e-06
1.533052438834772e-06
1.896813965364213e-06
2.308847551343458e-06
2.771876783361228e-06
3.288718180498136e-06
3.862181033418744e-06
4.494971031872003e-06
5.189575985527844e-06
5.947647074537588e-06
6.768315466646633e-06
7.644365921933138e-06
8.582451581097616e-06
9.593810086936878e-06
1.068157668205824e-05
1.184870071395561e-05
1.309785563240848e-05
1.443133386127929e-05
1.585092243508157e-05
1.735775414564663e-05
1.895212638786342e-05
2.059846142763023e-05
2.228981464366944e-05
2.403474193107512e-05
2.583818858420315e-05
2.770161863919327e-05
2.962410782121638e-05
3.160459182417248e-05
3.36456582402226e-05
3.57595629068405e-05
3.797749789120205e-05
4.036337151744955e-05
4.303294712662119e-05
4.617659192215012e-05
5.007506858414239e-05
5.507395153756324e-05
6.143075134324977e-05
6.887606478325731e-05
7.575134121311259e-05
8.260844373481296e-05
9.027050951458849e-05
9.877466335944065e-05
0.0001081185638818676
0.0001182498708371203
0.0001290609929301365
0.0001403913963114763
0.0001520380526392444
0.0001637723317536118
0.0001753595619760476
0.0001865763925892316
0.0001972214634327111
0.0002071166502474819
0.0002160987741179808
0.0002240043670594417
0.0002306521457557234
0.0002358287559644087
0.0002392828458615455
0.0002407304672429037
0.0002398710358740414
0.0002364074064401586
0.000230055963429254
0.0002205205846928428
0.0002074122514486198
0.0001899589546338771
0.0001686467212539756
0.0001458111771545364
0.0001230436344276718
0.0001008335075764504
7.880207623884978e-05
5.06184108458331e-05
3.368884358320914e-05
2.054710645390657e-05
9.271156884941453e-06
3.392013880080205e-06
1.060750558815322e-06
2.969858991005941e-07
8.051984867468558e-08
2.633056897404894e-08
1.410294956360708e-08
1.147037508967526e-08
1.0834156592471e-08
1.07364855936054e-08
1.15223051256918e-08
1.640186534353773e-08
4.232600613121275e-08
1.791578480867734e-07
9.106828688269221e-07
4.893058606114399e-06
2.714927618654992e-05
0.000141332484889575
0.0004940462071165221
0.001203961042657199
0.002594515149836233
0.004902305941124346
0.007836348978266702
0.007554918795920107
1.782321412151574e-13
2.110916296275663e-11
3.553751413895636e-10
2.444461263273142e-09
1.030719340361549e-08
3.174218801688436e-08
7.782013758171732e-08
1.597263599625362e-07
2.847805030412386e-07
4.550545063584216e-07
6.691497676045055e-07
9.246524830561812e-07
1.207619761546799e-06
1.526494737322316e-06
1.889809289312196e-06
2.301489366486034e-06
2.764334320232297e-06
3.281166172898643e-06
3.854818742385666e-06
4.488020673389018e-06
5.1832471972708e-06
5.941952227714536e-06
6.762465051862422e-06
7.635262702409162e-06
8.574334226122228e-06
9.58699730502661e-06
1.06764535051793e-05
1.18457288012907e-05
1.30975852793111e-05
1.443441755303534e-05
1.585812974075949e-05
1.736998782696014e-05
1.897044043593767e-05
2.063878386372301e-05
2.234642899038884e-05
2.410406073773773e-05
2.591826828875416e-05
2.779176960136097e-05
2.972451939867613e-05
3.171571508476484e-05
3.376706618657521e-05
3.5888125853644e-05
3.810490080809135e-05
4.047323093927232e-05
4.309798436629597e-05
4.615635228710236e-05
4.991509053221132e-05
5.47116299153598e-05
6.082975879090754e-05
6.814069439635684e-05
7.534849611627764e-05
8.208502568012308e-05
8.961473188753437e-05
9.798100343972672e-05
0.000107189652267476
0.0001171977351895203
0.0001279069606081698
0.0001391643432955561
0.0001507711906051173
0.000162499201679873
0.0001741101848449829
0.0001853745111082497
0.0001960834998463138
0.0002060525160677383
0.0002151141624392086
0.0002231037882079265
0.0002298418182377678
0.000235118549152013
0.0002386867458411047
0.0002402654385743561
0.0002395546153240063
0.0002362548361597717
0.0002300780221642865
0.000220724108294767
0.0002078032151518187
0.0001905620008058653
0.0001693841373671991
0.0001465765967355409
0.0001237973417410214
0.0001015844408889819
7.959185271232199e-05
5.152082068339555e-05
3.416444744574364e-05
2.106398846894531e-05
9.592499950373561e-06
3.542940724565865e-06
1.116597927260695e-06
3.144114952640511e-07
8.52656761754085e-08
2.748389789257907e-08
1.436520004049492e-08
1.153595254280948e-08
1.085902806800356e-08
1.075009190838825e-08
1.152225776976012e-08
1.635087520841996e-08
4.203915398225146e-08
1.777350562298584e-07
9.037814321895808e-07
4.861199859003054e-06
2.704638732953891e-05
0.0001414289430812516
0.0004951954286193436
0.001209397616185425
0.002608274263234012
0.004920463947309568
0.007852172589595478
0.007571964110095597
1.755190077998139e-13
2.074838344693257e-11
3.490087893544386e-10
2.400082487537531e-09
1.012249710485441e-08
3.119703242605866e-08
7.65804562288827e-08
1.574391229646576e-07
2.812007427304818e-07
4.500988574577449e-07
6.62866254846828e-07
9.17174332227692e-07
1.200201650190059e-06
1.518422716202508e-06
1.881076358341062e-06
2.292284378230319e-06
2.754968050318307e-06
3.272019282167419e-06
3.846362705642828e-06
4.480761917219267e-06
5.177452772807962e-06
5.936721675235111e-06
6.753228925562125e-06
7.622660637912823e-06
8.562660703367393e-06
9.5765821792458e-06
1.066768766509213e-05
1.18390752432962e-05
1.309359400976015e-05
1.443374590193681e-05
1.58615713332435e-05
1.737851677200285e-05
1.898528432237152e-05
2.068167007061099e-05
2.241706014834289e-05
2.419048261207935e-05
2.601542981897397e-05
2.789900444666598e-05
2.984312419705618e-05
3.184716765795793e-05
3.391171852729983e-05
3.604388866958216e-05
3.826548337230716e-05
4.062572190731599e-05
4.321977311554777e-05
4.621179995274246e-05
4.985421180769246e-05
5.447874951935336e-05
6.039955713436059e-05
6.759696164412583e-05
7.496806319973604e-05
8.159211583289129e-05
8.899566893749345e-05
9.722857548397051e-05
0.0001063046522026386
0.0001161901079582028
0.0001267958830600861
0.0001379768051185839
0.0001495391068843048
0.0001612555946731305
0.0001728853241690728
0.0001841929609689903
0.0001949627698348954
0.0002050035470813512
0.0002141433665428871
0.0002222159594027933
0.0002290430418246486
0.0002344182839854154
0.0002380985016032056
0.0002398058571771847
0.0002392412292424385
0.0002361032607876382
0.0002300997460335698
0.0002209267840956346
0.0002081933589839888
0.0001911658176887228
0.0001701300085130053
0.0001473559338451489
0.0001245659776720582
0.0001023478361014522
8.038946009012356e-05
5.244722113994366e-05
3.46637253245624e-05
2.159524902765527e-05
9.925599300197065e-06
3.701216017481757e-06
1.175803221411286e-06
3.330440245901156e-07
9.0376758193456e-08
2.873291154236588e-08
1.464919705303472e-08
1.160564571548523e-08
1.08843521530984e-08
1.076349004268208e-08
1.152182378361604e-08
1.629899183448805e-08
4.174881621497395e-08
1.762955072988617e-07
8.967926498825199e-07
4.828833804939942e-06
2.694009918309835e-05
0.0001415081256799703
0.0004963220552912887
0.001214809653391414
0.00262182800550011
0.004938087734950115
0.007866537082992793
0.007589756716791491
1.725369295265008e-13
2.035713599858568e-11
3.421440404268006e-10
2.352382031905913e-09
9.924446856804078e-09
3.061349028874606e-08
7.525452884200856e-08
1.549908582303066e-07
2.773572220209775e-07
4.447447783673147e-07
6.560059254583084e-07
9.088781172279073e-07
1.191465158329409e-06
1.508468805185692e-06
1.869793763941836e-06
2.279759081908053e-06
2.741427762336299e-06
3.257796991470784e-06
3.831913777626105e-06
4.46657059984447e-06
5.163679624491294e-06
5.922173999134954e-06
6.73280849600097e-06
7.602074908448887e-06
8.542197930956395e-06
9.556582863580358e-06
1.064855258642935e-05
1.182127624363241e-05
1.307768840879636e-05
1.442039613167878e-05
1.585157202795868e-05
1.737283242589372e-05
1.89851013085064e-05
2.068846375525136e-05
2.247312188121852e-05
2.427317385583157e-05
2.611135950568521e-05
2.800284559123898e-05
2.995492005236907e-05
3.196926462529949e-05
3.404613704599547e-05
3.619028988637997e-05
3.841935189188396e-05
4.077616856547056e-05
4.334661449401685e-05
4.628258703095261e-05
4.982418934162563e-05
5.430037799273717e-05
6.005085449189965e-05
6.71333402636928e-05
7.458325785922403e-05
8.110016052900194e-05
8.838195500879387e-05
9.648449455113536e-05
0.0001054294606552772
0.000115192184905824
0.0001256929472170168
0.0001367947098984626
0.0001483091727197989
0.0001600109133713209
0.0001716568609187078
0.0001830064066402888
0.0001938369020338118
0.0002039504200944478
0.0002131701293906091
0.0002213276685669277
0.0002282456064932275
0.0002337206937921701
0.0002375137108895387
0.000239350076334565
0.0002389318396546352
0.0002359560685316262
0.0002301267437303889
0.0002211362577205708