/*--------------------------------*- C++ -*----------------------------------*\
| =========                 |                                                 |
| \\      /  F ield         | OpenFOAM: The Open Source CFD Toolbox           |
|  \\    /   O peration     | Version:  v1812                                 |
|   \\  /    A nd           | Web:      www.OpenFOAM.com                      |
|    \\/     M anipulation  |                                                 |
\*---------------------------------------------------------------------------*/
FoamFile
{
    version     2.0;
    format      ascii;
    class       volScalarField;
    location    "1792";
    object      omega;
}
// * * * * * * * * * * * * * * * * * * * * * * * * * * * * * * * * * * * * * //

dimensions      [0 0 -1 0 0 0 0];


internalField   nonuniform List<scalar> 
11121
(
1307347.231187233
255631.0055079326
92057.22797609858
45201.50677532027
26662.21290651085
17791.64761886784
12964.48745091898
10050.17466195657
8121.386229074261
6743.179948066338
5701.404749466462
4882.155994729464
4218.26956807733
3668.337729877288
3206.118886798729
2813.788453387108
2478.434694089915
2190.231513265447
1941.447172547116
1725.849296393357
1538.336663263521
1374.693907279265
1231.413940890353
1105.559490111491
994.663134617429
896.6472299177472
809.7516482582211
732.4790424918181
663.5495274899544
601.8631476622817
546.4687489429326
496.5381325572174
451.3446631324182
410.24581421198
372.6694969973115
338.1044908923319
306.0958890560094
276.2471453260134
248.2294651101201
221.8024215912661
196.8430010730715
173.3735977483827
151.5689174902413
131.711594727131
114.0754819179033
98.75677801307242
85.52130805859709
74.04431203202255
64.14461076457438
55.69305306837494
48.54655108385119
1310708.301532751
256600.8949037429
92457.37781893594
45407.09783212061
26782.13319081674
17867.41203611723
13015.37446006802
10086.33548452559
8148.434367794829
6764.22211377784
5718.16314422325
4895.768990903082
4229.549307150537
3677.808342310862
3214.141363558369
2820.626690954447
2484.291304085557
2195.267563385773
1945.793637235899
1729.614034606288
1541.609098735841
1377.548422377924
1233.912631499745
1107.754703783148
996.599514386846
898.3634151869527
811.2820124297868
733.8553141248216
664.8023370582698
603.023527710766
547.5695900002231
497.6155693098121
452.4393166043975
411.4037354703282
373.9425311017159
339.5495793034946
307.7725410963429
278.2119545065564
250.5275759819688
224.4539823253522
199.825647514584
176.6063978329847
154.9078270290256
134.969020806892
117.0703012828521
101.3860732385299
87.8345496052367
76.0930078345587
65.916975920403
57.18980083802147
49.77988331638357
43.54457086888365
1313967.196638377
257542.4370478522
92845.99358126301
45606.705308891
26898.43026157317
17940.73992849509
13064.50634408968
10121.18354406978
8174.48528986307
6784.501229281256
5734.331242534315
4908.915091515754
4240.446916073907
3686.953295551065
3221.874852104124
2827.19932520043
2489.897817170021
2200.065268762396
1949.912385740069
1733.16226940037
1544.677794786938
1380.213909630007
1236.238948344213
1109.795799827873
998.4010597007189
899.9643871410126
812.7163133957654
735.1532952611648
665.9922560444359
604.1329612504018
548.6268085158484
498.6508633842355
453.4862307907441
412.500106136905
375.1311310080293
340.8780266672999
309.2919284929131
279.9734168266925
252.5758477334524
226.816916365027
202.4995353816984
179.5394986575502
157.9893413792389
138.0364430027156
119.9479735206973
103.9522740191442
90.0884297496289
78.08453741306904
67.65722732624506
58.67411995339837
51.01506623156445
44.54689569571325
39.12894180518759
1317231.885032768
258486.6805467346
93235.71837755843
45806.58484006711
27014.48087247829
18013.50749753892
13112.9415059464
10155.3467384962
8199.960629106701
6804.355963096563
5750.228019972259
4921.926505736574
4251.321802506831
3696.159018330352
3229.725364166215
2833.921724269733
2495.668001423201
2205.02648711368
1954.184823012361
1736.848514097527
1547.86608012737
1382.98023149679
1238.648761448391
1111.90554852126
1000.25941973504
901.6134365581649
814.1927428344759
736.4896066419504
667.21796342369
605.2758063969314
549.7139906946634
499.7102728979822
454.547651813983
413.5963142978728
376.2987439575095
342.157854627026
310.728403087555
281.6124409798974
254.4601467561603
228.9778386359795
204.9447215773934
182.2377549806875
160.858196834193
140.9431175936918
122.7349900767717
106.4865001074671
92.31137682680298
80.03940819670065
69.37971358181929
60.15658899056966
52.26034944867548
45.56725806104576
39.94383704282572
35.25313314574548
1320472.360130032
259424.8505501919
93622.65087824335
46004.34847778697
27128.44566040153
18084.09017684543
13159.15550982876
10187.37244376109
8223.483089365105
6822.495203461311
5764.656561275644
4933.716494467439
4261.214716761129
3704.600947561767
3237.002707247776
2840.23191343279
2501.157800987584
2209.812042596715
1958.361998071396
1740.498783225163
1551.059927202687
1385.779231556392
1241.107116119065
1114.071308307191
1002.175331365357
903.3177009876156
815.7197482053081
737.8706378478508
668.481923602533
606.4499846160882
550.8248931609234
500.7845232370055
455.6129431846365
414.6823602133293
377.4381195291703
343.3865273243603
312.085608220874
283.1393567887864
256.1965926485232
230.9560773026148
207.1796931780904
184.7142529984237
163.5181888318162
143.6803941781804
125.4071442484211
108.9512681895376
94.48354988661079
81.95340645327184
71.07563771368784
61.62651145646102
53.50483263864167
46.59552580706089
40.77231101771423
35.90314451173589
31.8565039179318
28.50698565348144
25.73934137227001
23.45073456246644
21.55147925440649
19.96472805549804
18.62558917259659
17.48004122781744
16.48385856591849
15.60160977177267
14.80567992122354
14.07521025244737
1323568.769148155
260322.2693272163
93992.77060796677
46193.21775946097
27236.80974701733
18150.62501036133
13202.11274430008
10216.58293257003
8244.472460314953
6838.308594531676
5776.925850097001
4943.502256114394
4269.262504219714
3711.360705787385
3242.76333315098
2845.19064917386
2505.458114871017
2213.563689348399
1961.651626655185
1743.396363741573
1553.622811376758
1388.054922700956
1243.135464547407
1115.886337661846
1003.806547295015
904.791184865636
817.0591156765582
739.0978395936373
669.6179310168843
607.5153951776845
551.8404953539307
501.7718654408216
456.5949393613429
415.6839317888667
378.4868142747704
344.5129739104183
313.3235456591821
284.5248139321301
257.7655952239889
232.7400772055864
209.1979188849866
186.9627555524448
165.9571805019268
146.2251810325266
127.9326303405379
111.3206109072002
96.60005816366321
83.81373658142385
72.72011046476167
63.06549849256861
54.73401807417735
47.61995142257323
41.60481219086221
36.56212676918268
32.36354608878211
28.88470829159868
26.00978967016861
23.63433387670842
21.66648032645068
20.02700187288345
18.64863129623912
17.47507862456084
16.45999568501692
15.56598996314665
14.76366506270095
14.03059244059739
13.35010685778476
1326543.155146096
261185.4659318985
94349.27723706253
46375.57992179846
27341.84993345679
18215.468275716
13244.24498757866
10245.41157285835
8265.284078700968
6854.014991374149
5789.08645943021
4953.126776258538
4277.06304673005
3717.777494460908
3248.09081705527
2849.640911875054
2509.194414121919
2216.717292852302
1964.330088542424
1745.688375124247
1555.601263542903
1389.779186940949
1244.65357222299
1117.237181114918
1005.021811335515
905.8971501480524
818.0780888220779
740.0489812018188
670.5178569072015
608.3790032889764
552.6821170741102
502.6064509967031
457.4390314796194
416.5563804642599
379.4092963709367
345.510335443628
314.4238534403207
285.7588228521563
259.1651200524287
234.3345261788309
211.0081235846858
188.9915649864578
168.1777525432838
148.5711993006792
130.2990191940249
113.5839940667148
98.65800735861882
85.62353851466838
74.31405102121342
64.46939716678763
55.94228354306902
48.63496154269881
42.43639016270742
37.22590749705132
32.87885009715976
29.27246830111334
26.29087317016918
23.82838971853059
21.79127448876078
20.09812438744335
18.67943929871056
17.47676406883071
16.44170633260447
15.53497182013434
14.72542363543078
13.98908448485637
13.30797384442368
12.66870199672366
1329498.399227635
262043.8552043756
94703.4816207034
46556.08006567703
27445.03309370316
18278.4720493939
13284.71796375452
10272.93374865575
8285.246595585908
6869.348381202851
5801.308115250217
4963.168381404065
4285.543443808408
3725.04502190978
3254.357635452326
2855.051014938502
2513.858681760119
2220.729912520234
1967.775512518518
1748.644472431512
1558.140727915418
1391.97048221669
1246.561895630233
1118.924536247222
1006.54401865749
907.2941511944422
819.351346921656
741.1878804571112
671.5411849098074
609.3263421427284
553.589001315273
503.4968948183524
458.3317459138576
417.468947637697
380.360643241412
346.5220239900019
315.5205548189101
286.9680601462492
260.5160377893051
235.8551308369132
212.7202471089284
190.9029983522212
170.2720578956847
150.7981150684442
132.5717111812996
115.7909902195717
100.6931030379274
87.42605075079508
75.90441497755623
65.87359589120965
57.15638792535412
49.66105872183771
43.28298447564223
37.90701302504561
33.41231404866086
29.67809739863554
26.58878477169689
24.03779836758664
21.9297417042506
20.18118862740832
18.72050379144051
17.48713032021181
16.43067519853548
15.50997273240309
14.69216362827012
13.95172608686808
13.26935354945466
12.63059252288309
12.02421984493605
11.44043348822712
1332372.646237513
262878.8346564326
95046.58480950538
46728.62680983019
27540.93347391195
18334.24840499423
13318.08728813061
10293.75940442092
8299.175784242922
6879.447698823001
5809.115646728122
4969.617281543981
4291.235130950219
3730.261251063262
3259.219049714673
2859.599687373041
2518.102982153227
2224.667345603346
1971.403656419749
1751.966374236792
1561.167101949829
1394.720082345553
1249.060529525762
1121.201978191664
1008.627707800869
909.1983316052532
821.0825371344761
742.7547175461459
672.952768347606
610.6073033573804
554.7766214136257
504.6236155628936
459.4243736102113
418.5508511088649
381.4539517602108
347.6494136438199
316.7064051987304
288.2388327431128
261.8996587774843
237.3789978318388
214.4073202343153
192.7654718684884
172.3026585798991
152.9605622951899
134.7945369256828
117.9719975760828
102.7223977828471
89.22978297496913
77.50066765410784
67.29037429527779
58.3878018599301
50.70769850652847
44.15199925137814
38.61114937485537
33.9683396667123
30.10501440843167
26.90619866278892
24.26466411744583
22.08354763133262
20.27752249547052
18.77289277441037
17.50704460972421
16.42761250031113
15.49157753042813
14.66436731495327
13.91891413359982
13.23457147793461
12.59579602422953
11.99056177891077
11.40856852656118
10.83943429836814
10.27125884345894
1335022.548596859
263649.1378323755
95362.63269036304
46886.55834389151
27627.25156217583
18382.63813999224
13345.02397984896
10308.56535394525
8307.293679590175
6883.889209243417
5811.415516284622
4970.776846070433
4291.955842175566
3730.900809877023
3259.952113865414
2860.49972493303
2519.188496218899
2225.927256355076
1972.811101415142
1753.487253981665
1562.765291378706
1396.360541330697
1250.711216278162
1122.834997977286
1010.220351889481
910.7356384683584
822.5546282282218
744.1542895638163
674.2761905637605
611.8548608018126
555.95628408661
505.7505875374569
460.5166762122014
419.6277784545208
382.5355395231315
348.756603967716
317.8614935477357
289.4657686914916
263.2237695459345
238.8256636566276
215.9990503260718
194.5167953043588
174.2125155057622
155.0029821315679
136.9109756622665
120.0724735026633
104.7039103401377
91.01252170184996
79.06569194304367
68.67149581022537
59.60200585306127
51.74904526423229
45.02341442262419
39.32248485306906
34.5343135456731
30.54317783069759
27.23515810456927
24.50271740315862
22.24777576547378
20.38328166049063
18.83360012700219
17.53414631015445
16.4306462960042
15.47827749023611
14.64079129373122
13.889596877811
13.20271464516394
12.56350218089744
11.95910783683662
11.37870165591418
10.81166441980894
10.24611649355609
1337469.712005878
264361.4976666512
95655.64346393912
47033.78162681453
27708.48929498892
18428.80314554258
13371.12064363646
10323.0453926488
8315.099085478389
6887.775182647611
5812.810815758945
4970.645611544336
4291.009091101886
3729.550710523218
3258.452361924001
2859.01227482045
2517.819426180975
2224.745305517486
1971.857309512357
1752.781808769189
1562.313137521174
1396.156448762638
1250.744078675607
1123.089283732779
1010.670023141361
911.3241467672646
823.2298535842103
744.888646081909
675.0465405240357
612.6413543801905
556.7546162639824
506.5664228142052
461.3530973450563
420.4891762068469
383.4294728968997
349.6942942650755
318.8576736619528
290.5382728787832
264.3928542150473
240.1127282712215
217.4241934675989
196.0945292830625
175.9451525567104
156.8721235076588
138.8696931436423
122.043855494321
106.5929334345072
92.73325091985372
80.57555003915546
70.00079453284532
60.77768938827422
52.7649079189546
45.88003309320458
40.02698419490585
35.09898433940484
30.98364344520062
27.56859068475828
24.74639213940803
22.4180659703002
20.49506569273934
18.89998297322236
17.5663839190116
16.43817999286796
15.46881957692553
14.62043658495652
13.86295934539334
13.17309932898103
12.53312064140097
11.92933507857139
11.35035993756672
10.78530933385205
10.22229269151698
1339804.725513791
265041.9593934401
95935.93620875901
47175.06340957428
27787.00425511465
18474.08718148914
13397.48871550006
10338.53490154757
8324.382112437906
6893.428763144472
5816.152896477925
4972.37210252506
4291.620984985939
3729.420407149137
3257.813750451415
2858.02837703196
2516.616536320937
2223.428506401737
1970.516957440651
1751.497560272071
1561.157012884521
1395.194372899459
1250.032462347144
1122.658594169153
1010.481421300988
911.3104115788725
823.3521568006531
745.1210010341666
675.3639166245418
613.0187059360591
557.1807272928704
507.0524814874769
461.9105092575197
421.1184230980134
384.1285939142081
350.46380293035
319.7026221739536
291.468530807889
265.4223871727311
241.2581627901363
218.7024734574636
197.5191485218129
177.5204411715302
158.5856506488192
140.6843896670635
123.894010832324
108.3905491644352
94.39018525106238
82.03947235364484
71.2924661001386
61.92238050220639
53.75852633358728
46.72290050962482
40.72475186621008
35.66212040988099
31.42608845965376
27.90616808704795
24.99538350603675
22.59415041246596
20.61265335536686
18.97187333241975
17.60364504996286
16.45015406053174
15.46318973205773
14.60332400459687
13.83904538174945
13.14578131154145
12.50471034526503
11.90129995479523
11.32359482713718
10.7604154326973
10.19983061836059
1342072.241722098
265703.0969960726
96207.88160669146
47311.45440493069
27862.02051196505
18516.62881620407
13421.71377403603
10352.48248995685
8332.745022449189
6898.769408086476
5819.736477590469
4974.765950071387
4293.188062732819
3730.426269907506
3258.391778940301
2858.255015218404
2516.549723843804
2223.12539249084
1970.041098699799
1750.922008660278
1560.564170203344
1394.670626576446
1249.651615728992
1122.442471030114
1010.393449074438
911.3193455318249
823.4483020442209
745.2934397504147
675.6000854731133
613.3041123979682
557.4988032508999
507.4081761138334
462.3314667955915
421.6236996770239
384.7224220918787
351.1451211924492
320.4711901212229
292.3279548928716
266.3808788138712
242.3277500613484
219.8969976809281
198.8509359368479
178.9952672098585
160.1957864816958
142.4005760118021
125.6595948417181
110.1243065992338
96.00531971273374
83.47922352796058
72.56823916865096
63.05464655691306
54.74434073696012
47.56280674182141
41.42380567428644
36.22974210980333
31.87509023232358
28.251397258727
25.2523852065302
22.77809972399405
20.73764119644664
19.05051266878004
17.6469097659565
16.46735836963097
15.46203936741762
14.59000233044369
13.81832498465493
13.12116754747316
12.47862616885021
11.87531398477054
11.29868255421839
10.73723175142592
10.17896055146789
1344253.943300203
266339.3032451128
96468.73498676773
47440.91579467739
27931.53613472611
18554.22852343458
13441.35335879885
10362.25145833415
8337.442111408427
6901.027978694807
5820.836765737256
4975.2458730567
4293.376203753742
3730.546454059746
3258.513931271763
2858.381852385959
2516.662949484591
2223.208700856827
1970.090526500534
1750.950143479343
1560.599301458305
1394.749787485598
1249.803848561145
1122.655260376035
1010.645995945187
911.6087101292436
823.7714510375307
745.6467452390962
675.9789208325158
613.702598055021
557.9097222575065
507.8231825511012
462.7706863437779
422.1224429811521
385.2987053504134
351.8062219015791
321.2198141280196
293.1668376899561
267.3154175579327
243.3667441426397
221.0517031597812
200.1324811942116
180.4102176607987
161.7396429683768
144.0498329035227
127.3653222835101
111.8136138452859
97.59771198219948
84.91630767773729
73.83922351812195
64.17843682563961
55.72878396248777
48.40598334367282
42.12932199867013
36.80590284659801
32.33376283319007
28.60666434542084
25.51922920754129
22.97132392860253
20.87111863995374
19.13674916970632
17.69684721245276
16.49033051422178
15.46580919467888
14.58083943118184
13.80110915805053
13.09952276284169
12.4550941346429
11.85157082456622
11.27579054645639
10.71590565137571
10.15981388352289
9.594451127082971
9.00741434579947
8.392648989229007
7.782475137309812
7.195758002669826
6.569289111319823
5.854122136389732
5.077215188755343
4.298263775044737
3.559315394464477
2.948125891146008
2.532587743173265
2.285142202154862
2.146186654120779
2.061087528138208
1.998680558663829
1.947014468786874
1.901644611593354
1.861031831456294
1.824644903124356
1346273.860549264
266928.4225461124
96709.59627221077
47559.27836101098
27993.5229572016
18585.88135249436
13455.80040240799
10367.25123599023
8337.689049238221
6899.141853386183
5818.107039529062
4972.214205386359
4290.40324111143
3727.899275487731
3256.280694500309
2856.563330708304
2515.22196288479
2222.095877130412
1969.256868122753
1750.353269370178
1560.205324704861
1394.531779347059
1249.737022701658
1122.708101358983
1010.790551278948
911.8270787890849
824.0491290394463
745.9718065201724
676.341392684998
614.0940203407578
558.3229092819772
508.2522374299321
463.2162307657816
422.6026121824631
385.837639269434
352.4192265371797
321.9157922242745
293.9515635692027
268.1944726563666
244.3473423137092
222.1429706720023
201.3439160390159
181.7480756984349
163.2011503311286
145.6159279098291
128.9945740269856
113.4424524827691
99.15208214971193
86.33354757355926
75.09007287994365
65.28185480883336
56.70136346648056
49.24388267691352
42.83440280267791
37.38501118417076
32.79757679584041
28.96832738004298
25.79301795145566
23.17154151736473
21.01130467660111
19.22920155740671
17.75239064718173
16.51824759801572
15.47386210090272
14.57533674958975
13.78700020179351
13.08052099804882
12.43383857374315
11.82983018113886
11.25470408231091
10.69624185782446
10.14221424180167
9.579616385283641
8.99611359030154
8.385533671942266
7.777548798042618
7.194054836909146
6.574675041648721
5.868093970196295
5.097609076460313
4.322225035486067
3.583615792594892
2.967866325320063
2.54588387352214
2.293438961111096
2.151429319805418
2.064735448713711
2.001491571341154
1.949273185179671
1.903460200078698
1.862451071357937
1.825695103500793
1.792966360121558
1.764092283705087
1.738904347763809
1.717178695208721
1.698811518862941
1.683621268038196
1.672533732291036
1.670030249738425
1.706061531032131
1.971504390788865
3.197566323175185
6.006027328229216
9.585141847711515
13.50719873291711
20.06702663333287
42.32410302522085
1348095.958016567
267460.2660493186
96927.1631496522
47666.18096020533
28049.30898567997
18613.93693215554
13467.9117461403
10370.4278274169
8336.221483694515
6895.459321687897
5813.429111687391
4967.072581936322
4285.191571025924
3722.943968908057
3251.735050377404
2852.490403066211
2511.637891449901
2218.992534285882
1966.61370583121
1748.144851788328
1558.405732713007
1393.114844968739
1248.668391806743
1121.921325422006
1010.223299658044
911.4433573291084
823.8187066638103
745.8690679814397
676.3445147988234
614.1843522792262
558.4844741850509
508.4712903287114
463.4808020396471
422.9183519239284
386.2220037651648
352.884022048592
322.46900250339
294.5990481090151
268.9415457450035
245.2000150953858
223.1084065016258
202.4295522702995
182.9589251444143
164.5350849064854
147.0574869250437
130.5092361221512
114.9750135451404
100.6333544453582
87.6973024861169
76.29758771941947
66.34859718872026
57.64548209179583
50.06155492349223
43.52634931548109
37.95659725802962
33.25804603229807
29.32959072040157
26.06836429701795
23.37451975066023
21.15489871600384
19.32531147163642
17.81156487291803
16.54958645664228
15.48502016034675
14.57257569984186
13.77527094725877
13.06357411258918
12.41437127941136
11.80967565988437
11.23505895752533
10.6779148073864
10.12586474866278
9.565939348651829
8.985863668914885
8.379374035701895
7.773600013500761
7.192845285009034
6.5801923872518
5.882053215706478
5.117971397878084
4.346166865480837
3.608023008564247
2.98789211529856
2.559452522362237
2.30189305937358
2.156729631405349
2.068383190510783
2.004277711455865
1.951500254051112
1.905244634296821
1.86384260306428
1.826722409354375
1.793651637346361
1.764458220314542
1.738972125634804
1.716972635551401
1.698350672866886
1.682929327786944
1.671616597960083
1.668859675866279
1.704574419227706
1.971896012090366
3.210049742708043
6.027516733528059
9.598735803916817
13.52412914169201
20.11064629369874
42.42113096805058
1349823.792606612
267965.1644289042
97134.1975418645
47768.47905037824
28103.33854443955
18641.82670704075
13480.77209662372
10374.8415100527
8336.197931951432
6893.24266513791
5810.118757339069
4963.127783397615
4280.938885918521
3718.656686506367
3247.552089551037
2848.489117044103
2507.869598985759
2215.499450853315
1963.436850799447
1745.327971795052
1555.992972117536
1391.133987367919
1247.082940450938
1120.649314417509
1009.207056369817
910.6500406113249
823.2195643990989
745.4383548167053
676.0587451243895
614.0217140305501
558.4242543637704
508.4931658706649
463.5638113931385
423.0626194317054
386.4484458079168
353.207317341651
322.8940298989698
295.127473739524
269.5752806392185
245.9425678074124
223.9649345699854
203.4058408805753
184.0590824944023
165.7576651598993
148.3901535426812
131.9230779185054
116.4212808001018
102.0472115953834
89.01311127707737
77.47435350854281
67.39252082796438
58.56976113324706
50.86440637619906
44.20872301759871
38.52315277615949
33.7169923505013
29.69181515781087
26.34629169786924
23.58103105261111
21.30248892384649
19.42553581742159
17.87473669331886
16.58465418824955
15.49955156721522
14.57279825645074
13.76614359457661
13.04888686488026
12.3968798720793
11.79127773548944
11.21700931462994
10.661064463206
10.11089441478184
9.553542504079237
8.976784024377649
8.374280734943486
7.770672861897869
7.192335237337563
6.586016803692215
5.896099184787329
5.138387087081816
4.370159320119196
3.632583759871702
3.008234756423119
2.573319125300374
2.310521850238627
2.162097635758844
2.072036473640878
2.007042506486553
1.953698166268513
1.906999871097719
1.865208028016364
1.827728125689898
1.794320405020944
1.764812984696694
1.739033861847796
1.716765469614261
1.69789300821854
1.682244329605134
1.670709406622902
1.667701172197167
1.703097446773919
1.972270441105214
3.222279627695061
6.048346752969851
9.612052110387737
13.54158046839541
20.15746719321747
42.51727393402292
1351556.503530802
268471.4912974401
97341.12195379216
47869.64917183424
28155.55347909344
18667.58264033768
13491.57163614451
10377.60800337473
8335.15752503928
6890.71278673074
5807.162173620847
4960.110332222669
4278.050740832298
3716.015406136854
3245.154167582699
2846.293129401183
2505.83685260639
2213.611736168005
1961.701868380299
1743.777690205955
1554.67282052354
1390.075501031016
1246.245043304163
1119.979524485068
1008.687969706901
910.2667127075683
822.9585363357049
745.286939313155
676.0045014372361
614.0520445655575
558.5260726998009
508.6526011762987
463.7659426850724
423.2913593821211
386.7219373188792
353.5612375987292
323.3432784760466
295.6762732204259
270.2244818368256
246.6936921049557
224.8215176164087
204.372827185328
185.1407109873795
166.9539090696365
149.6917246819448
133.3056757691492
117.8415111017344
103.4449941437477
90.32557646831344
78.65938624296319
68.44818511709647
59.50426733457762
51.67706229946347
44.90121752706253
39.10029414467822
34.18674888208513
30.06469896463352
26.63438557714099
23.79697595011532
21.45864645383105
19.5334111861042
17.94464932971047
16.6255940690547
15.51915114060703
14.57736642112475
13.76073331037848
13.03739002617427
12.38215541266482
11.77531990401083
11.20115507277704
10.64622635070458
10.09779079600938
9.542880446350138
8.969310096303008
8.370738206282603
7.769052130212807
7.192819912921795
6.592482379664497
5.910564814968154
5.159177100663418
4.394493121586035
3.657540538242568
3.029078985206554
2.587607746659965
2.319397429025364
2.16757133419923
2.075716018003611
2.009798979273325
1.955876314358726
1.908733266103837
1.866553281952176
1.828717044749656
1.794976480866306
1.765159549134245
1.73909180858856
1.716558823515157
1.697439648545603
1.68156695537961
1.669812495591962
1.666554743378936
1.701630094221081
1.972624529788241
3.234250493653518
6.068530729935574
9.625101720037067
13.55978263583608
20.21062970101117
42.61183960335647
1353191.17044991
268948.606422264
97534.36798820247
47961.4902264696
28199.63497839
18685.47287196046
13494.67354705724
10373.06051752761
8327.454866432812
6882.36507018894
5799.318361300631
4953.133929394531
4272.117734702939
3711.208466045014
3241.383096818568
2843.401478711834
2503.657268154764
2211.992695615088
1960.517655211147
1742.929450242967
1554.084634779168
1389.690167370258
1246.026305546148
1119.900173171907
1008.721964293916
910.3931617499949
823.1606502653835
745.5510693950131
676.3192915250418
614.4077175582511
558.913880254804
509.0644778528868
464.1944404101035
423.7300032310814
387.1750372845556
354.0506631101855
323.8935609635419
296.3028186997125
270.9356135478543
247.4942341321271
225.7157051961183
205.3654388055081
186.2361563658513
168.1533577666027
150.9885020348132
134.6796526400413
119.2546010248028
104.8418850169292
91.64441684258283
79.85363190279547
69.5154992040774
60.45307629893488
52.50440264846042
45.60812769766378
39.69140948432803
34.66989171239729
30.45019263345231
26.9341333546176
24.0234975040863
21.62425458722646
19.64962351538998
18.02183927684782
16.67283037700722
15.54415949191799
14.58655838911101
13.75927116049578
13.02927825625889
12.37036369970827
11.76194466637248
11.18761993057285
10.63350938065993
10.08665177598834
9.534043887720401
8.96352665687481
8.368739520431069
7.768902868509598
7.194456311153059
6.599670517243612
5.925514662619744
5.180393474795382
4.419211071149883
3.682920366988985
3.050444805544018
2.602339025865401
2.328535551154158
2.173159890485234
2.07942646541667
2.012549462508011
1.958036074156003
1.910445817416148
1.867879174594518
1.829689830841171
1.795620387398039
1.765498285728321
1.739146193600383
1.716352769997249
1.696990548077449
1.680897031369352
1.668925632070868
1.665420215649259
1.70017284659896
1.972961939714256
3.245982508533591
6.088125915880646
9.637926690180304
13.57817353846003
20.26062757250322
42.7059825796048
1354565.217907628
269349.4127495085
97695.76848573689
48036.59147400474
28233.32078258313
18695.83250767736
13491.45988422529
10362.59840556244
8313.889847884951
6868.119445187456
5785.575109646466
4940.32491475777
4260.558446554459
3701.147048599462
3232.846784847851
2836.306005608845
2497.864269752404
2207.341126018503
1956.840510556926
1740.063586549758
1551.877867188981
1388.010044231807
1244.776323580035
1119.006416684233
1008.118206786022
910.0241134303485
822.98032902976
745.5214327304832
676.4090652206643
614.5913971782371
559.1709132385271
509.3786596540415
464.5535860782132
424.125984108005
387.604321064179
354.5170350469687
324.4087085170571
296.8812167557631
271.5896494910306
248.2328726319328
226.5453456135902
206.291162784453
187.2619188019857
169.2803262491298
152.2113843310653
135.9815604272199
120.602183736903
106.184328004726
92.92146231160123
81.01623278844725
70.55578495922668
61.38104648434891
53.31917992438696
46.30792335572553
40.27925901950845
35.15257824145141
30.83724446770801
27.23679823685529
24.25376133601473
21.79401581878608
19.77009431879455
18.10317870293686
16.72396536160088
15.57273155852676
14.5989417429081
13.76062883161972
13.02364494892348
12.36075872141282
11.75052229136288
11.17585873467534
10.62243013590969
10.07703864873827
9.526626217454629
8.95905690969062
8.367901972354659
7.769890863110533
7.196967296998243
6.607317376399832
5.940657657877948
5.201727767617727
4.444017736243131
3.70845033439205
3.072114564649289
2.617378323911767
2.337865293299781
2.178827844120676
2.083148249876877
2.015280839388592
1.96016752241977
1.912129656210979
1.8691793856143
1.830641402664827
1.796248049446596
1.765825926988785
1.73919439807982
1.716145186726482
1.696543997057755
1.680233155704491
1.668047753078209
1.664297125298742
1.698727578270789
1.973296439346649
3.257533625364638
6.107249675253372
9.650623371516113
13.59677894994985
20.30893431810555
42.79957495561398
1355749.617149144
269695.4385511745
97835.7741425642
48102.48820874092
28263.59437713448
18705.81314312043
13489.32218126328
10353.64846552551
8301.641837258285
6854.655240879203
5771.933924767727
4926.912863990116
4247.73112999943
3689.242119940064
3222.018686376382
2826.613034007004
2489.309978422298
2199.896933432155
1950.45948219233
1734.690095814137
1547.450348715115
1384.446956304092
1241.925623197993
1116.724235936289
1006.317039421518
908.6290311608809
821.9266957362523
744.7533592300055
675.8783164854652
614.2565575808584
558.9966881526195
509.3352228898994
464.6158836421387
424.2728583861582
387.8171907257882
354.7938470264926
324.7585636832857
297.3098579793464
272.1026167778875
248.8358945663398
227.2438230575488
207.0897548739071
188.1640572505173
170.2868643653827
153.3176599562094
137.1728166632045
121.8486673644146