/*--------------------------------*- C++ -*----------------------------------*\
| =========                 |                                                 |
| \\      /  F ield         | OpenFOAM: The Open Source CFD Toolbox           |
|  \\    /   O peration     | Version:  v1812                                 |
|   \\  /    A nd           | Web:      www.OpenFOAM.com                      |
|    \\/     M anipulation  |                                                 |
\*---------------------------------------------------------------------------*/
FoamFile
{
    version     2.0;
    format      ascii;
    class       volScalarField;
    location    "1792";
    object      p;
}
// * * * * * * * * * * * * * * * * * * * * * * * * * * * * * * * * * * * * * //

dimensions      [0 2 -2 0 0 0 0];


internalField   nonuniform List<scalar> 
11121
(
-0.3628168647992168
-0.3628157851975587
-0.3628146336620993
-0.362813429997708
-0.3628120739421365
-0.3628104833134162
-0.3628085863392417
-0.362806307107131
-0.3628035662276901
-0.36280028385605
-0.3627963802352648
-0.3627917711479409
-0.3627863659244043
-0.3627800651924386
-0.3627727566361282
-0.3627643156375528
-0.3627546039881528
-0.3627434678258971
-0.362730735477755
-0.3627162152507761
-0.3626996930312568
-0.3626809296098109
-0.3626596577555649
-0.3626355788896106
-0.3626083594860369
-0.3625776269266243
-0.3625429650208677
-0.362503908858352
-0.3624599392129991
-0.3624104762796366
-0.3623548727934303
-0.3622924064801646
-0.3622222719577848
-0.3621435720967266
-0.3620553090761784
-0.3619563756529943
-0.36184554721828
-0.3617214760193152
-0.3615826891968842
-0.3614275928882079
-0.3612544845617732
-0.3610615751323176
-0.3608470179910623
-0.3606089169012381
-0.3603452129343972
-0.3600533237509637
-0.3597299152821232
-0.3593721842458761
-0.3589777781352114
-0.3585435343975907
-0.3580658612310676
-0.3663885801486616
-0.36638753653017
-0.3663864218513196
-0.3663852538795722
-0.3663839342932603
-0.3663823819883224
-0.3663805253927416
-0.3663782889926909
-0.3663755933688572
-0.366372358884143
-0.3663685057499905
-0.3663639499789122
-0.3663586013153728
-0.3663523605752107
-0.3663451156550598
-0.3663367421101028
-0.3663271020003511
-0.3663160418362937
-0.3663033902515034
-0.3662889560424845
-0.3662725255950325
-0.3662538603675284
-0.3662326938274109
-0.3662087283268722
-0.3661816313720092
-0.3661510316662456
-0.3661165144688585
-0.366077616682329
-0.3660338211583762
-0.3659845504779327
-0.3659291600834675
-0.3658669307134976
-0.3657970601381896
-0.3657186543582812
-0.3656307183305063
-0.365532146567374
-0.3654217142926812
-0.3652980699123272
-0.365159730443249
-0.3650050817624805
-0.3648323868045181
-0.3646398058020376
-0.3644254300324344
-0.3641873073562567
-0.3639233682518942
-0.3636311133823073
-0.363307295980185
-0.3629489053925978
-0.362553423255062
-0.3621177785821449
-0.3616383817017246
-0.3611113144886842
-0.3696410033729751
-0.3696399956765921
-0.3696389174180021
-0.3696377844102915
-0.3696365001211953
-0.3696349841116967
-0.3696331650150637
-0.3696309670067229
-0.3696283106972126
-0.3696251163087355
-0.3696213041190304
-0.3696167902249306
-0.3696114847545195
-0.3696052885884765
-0.3695980896500612
-0.3695897635853389
-0.3695801725540741
-0.3695691631231166
-0.3695565641465825
-0.3695421844877562
-0.3695258107184882
-0.3695072044322502
-0.3694860993686607
-0.3694621981612128
-0.369435168757001
-0.3694046403659144
-0.3693701990537989
-0.3693313826501423
-0.3692876752446449
-0.3692385009591813
-0.3691832170838187
-0.3691211064911517
-0.369051369384154
-0.3689731142962651
-0.36888534856987
-0.3687869685115393
-0.3686767496248352
-0.3685533378121477
-0.3684152428226901
-0.3682608360932375
-0.3680883558834953
-0.3678959227176561
-0.3676815653513315
-0.367443245345664
-0.3671788336242022
-0.3668859448420259
-0.3665616342372088
-0.3662025738235319
-0.3658058622294406
-0.3653686323508163
-0.3648873289961423
-0.3643580047249724
-0.3637763760600846
-0.3726809163698512
-0.3726799648764316
-0.3726789430741491
-0.3726778631143517
-0.3726766305632228
-0.3726751655001322
-0.3726733954439082
-0.3726712436694456
-0.3726686294644749
-0.3726654719881037
-0.3726616907794659
-0.3726572013682704
-0.3726519133375013
-0.3726457268931693
-0.3726385288506279
-0.3726301937569915
-0.3726205827767564
-0.3726095412691594
-0.3725968967945882
-0.372582456736416
-0.3725660060211299
-0.3725473043628118
-0.3725260833671796
-0.3725020432859191
-0.3724748493917774
-0.3724441279708906
-0.3724094618213984
-0.3723703852773866
-0.3723263786367377
-0.3722768619188095
-0.3722211880556298
-0.3721586352224014
-0.3720883984997271
-0.3720095807666453
-0.371921182927852
-0.371822093625336
-0.3717110788836818
-0.3715867722962514
-0.3714476670034523
-0.3712921111455424
-0.3711183090594702
-0.3709243305783358
-0.3707081310177229
-0.3704675818899162
-0.3702004916367463
-0.3699045268364204
-0.3695768945070691
-0.3692140616397063
-0.3688129180795392
-0.3683707095342796
-0.3678838732094463
-0.3673484343849947
-0.36676010032318
-0.3661142053882956
-0.3753081549007352
-0.3753073003147187
-0.3753063770777116
-0.3753053916763895
-0.3753042543330012
-0.3753028871678825
-0.3753012180710683
-0.3752991699532618
-0.3752966620774218
-0.375293613570751
-0.3752899439353201
-0.3752855688930093
-0.3752803984946421
-0.3752743334074748
-0.3752672605256292
-0.3752590547234556
-0.3752495774964086
-0.3752386747542887
-0.3752261746095851
-0.3752118851543774
-0.3751955920268705
-0.3751770557671873
-0.3751560088333535
-0.3751321523841506
-0.3751051525937886
-0.3750746366648647
-0.3750401883169449
-0.3750013427620331
-0.374957581169178
-0.3749083244570105
-0.3748529264194332
-0.3747906661299691
-0.374720739543246
-0.3746422502972698
-0.37455419974481
-0.3744554763734098
-0.3743448448623367
-0.3742209353645511
-0.3740822338502168
-0.3739270749832211
-0.3737536395859803
-0.3735599599881423
-0.3733439378778454
-0.3731033772750511
-0.3728360149106548
-0.3725394685852808
-0.3722109756313851
-0.3718470973490919
-0.3714445459341558
-0.371000373927067
-0.3705110795112774
-0.3699726689603687
-0.3693808087410789
-0.3687307997489585
-0.3680175189947903
-0.3672353720582271
-0.3663782517692313
-0.3654394971962483
-0.3644118506069819
-0.3632874105884303
-0.3620575796328186
-0.3607130053685392
-0.3592435158989915
-0.3576380509514568
-0.3558845913489074
-0.3539700895713671
-0.3775286175190893
-0.3775278327213948
-0.3775269812878936
-0.3775260659333906
-0.377525000886088
-0.3775237108101144
-0.3775221248862813
-0.3775201672868793
-0.3775177583813608
-0.3775148181680287
-0.3775112669612825
-0.3775070212211788
-0.3775019920649517
-0.3774960812240529
-0.3774891767029109
-0.3774811544274789
-0.3774718771657241
-0.3774611922195776
-0.3774489292374386
-0.3774348980912071
-0.3774188864012065
-0.3774006569398584
-0.3773799446875473
-0.3773564535479727
-0.3773298527264263
-0.3772997726618397
-0.3772658005903844
-0.3772274756776277
-0.3771842834453091
-0.3771356494901305
-0.3770809324002351
-0.3770194160494306
-0.3769503012237203
-0.3768726964621573
-0.3767856080803253
-0.3766879293423597
-0.3765784290838692
-0.3764557401421811
-0.3763183483928485
-0.3761645837304841
-0.3759926151709121
-0.3758004531962142
-0.3755859626054929
-0.375346886287611
-0.3750808697109536
-0.3747854485199488
-0.3744579244491554
-0.3740951213487012
-0.3736934727484106
-0.3732496717065603
-0.3727603632866508
-0.3722215375347709
-0.3716287968278695
-0.3709773855724747
-0.3702621341510681
-0.3694774053198888
-0.3686170508553755
-0.3676743705899214
-0.366642070203116
-0.3655122160612981
-0.36427618552149
-0.3629246117222993
-0.3614473229941004
-0.3598332782203146
-0.3580705003229332
-0.3561460103444362
-0.3540457643369813
-0.3795711367097134
-0.3795703589473998
-0.3795695137100861
-0.3795686028290677
-0.3795675401626191
-0.3795662494786467
-0.3795646588778465
-0.3795626911437055
-0.3795602652471513
-0.379557299887787
-0.3795537140107855
-0.3795494232457993
-0.3795443377150777
-0.379538357716835
-0.3795313694091608
-0.3795232468785332
-0.3795138507882606
-0.3795030261360254
-0.37949059996898
-0.3794763791573613
-0.3794601480042654
-0.3794416655150132
-0.3794206624031539
-0.3793968378874086
-0.3793698569456011
-0.3793393486717306
-0.3793049030537016
-0.3792660545645269
-0.3792222710634113
-0.3791729622212633
-0.3791174816372087
-0.3790551129345062
-0.3789850533382163
-0.3789064045732547
-0.3788181643472767
-0.3787192163567549
-0.3786083190700875
-0.3784840939685339
-0.3783450139847303
-0.3781893934612884
-0.3780153814995845
-0.3778209610091536
-0.3776039555890619
-0.3773620457610227
-0.3770927942454725
-0.3767936684334752
-0.3764620007601173
-0.3760947685795615
-0.3756883186304736
-0.3752391979966492
-0.3747440976538395
-0.3741989825345661
-0.3735994382882399
-0.3729407096413228
-0.3722176380396101
-0.3714246036045047
-0.3705554795673181
-0.369603589316559
-0.3685616623862277
-0.3674217882002131
-0.3661753662712822
-0.3648130518857802
-0.3633246973395768
-0.3616992899476272
-0.3599248889141612
-0.3579885634541134
-0.3558763342880487
-0.3535731200080262
-0.3815707615967989
-0.3815700950470678
-0.3815693594698614
-0.3815685486549768
-0.3815675791637979
-0.3815663734869469
-0.3815648553974894
-0.3815629426835567
-0.3815605493874642
-0.381557589838553
-0.381553979486571
-0.381549630974076
-0.3815444518816547
-0.3815383388101603
-0.3815311729872399
-0.3815228235803867
-0.3815131461769855
-0.3815019801398033
-0.3814891461781947
-0.3814744440403702
-0.3814576499523982
-0.381438513760277
-0.3814167559375873
-0.3813920647444007
-0.3813640944359338
-0.3813324641780458
-0.381296750034009
-0.3812564663686889
-0.381211059700328
-0.3811599150318143
-0.38110236112832
-0.3810376610942958
-0.380964989949542
-0.3808834238455457
-0.3807919315855187
-0.3806893647687192
-0.3805744466082208
-0.3804457601011557
-0.3803017362024904
-0.3801406428900103
-0.3799605765580043
-0.379759457707724
-0.3795350339553215
-0.3792848952981041
-0.3790065074635326
-0.3786972538183751
-0.3783544146881389
-0.3779749434021742
-0.3775551682535396
-0.3770916873013478
-0.3765812103235897
-0.3760196581203969
-0.3754026376822849
-0.3747254529914369
-0.3739830284190242
-0.3731698497371165
-0.3722799180601588
-0.3713067041235124
-0.3702431004710501
-0.3690813711093402
-0.367813097368233
-0.3664291188716705
-0.364919469584487
-0.3632733103019851
-0.3614788600925656
-0.3595233298718421
-0.3573928613007824
-0.355072473640031
-0.3525460205551819
-0.3497961590802269
-0.3828232028818001
-0.3828228167062551
-0.3828223664723527
-0.3828218298682425
-0.3828211371498305
-0.3828202170635193
-0.3828189942179126
-0.3828173862285272
-0.3828153072030105
-0.3828126719078451
-0.3828093965033585
-0.382805394576226
-0.3828005758683338
-0.3827948391257406
-0.3827880668009896
-0.3827801297625286
-0.3827708859458978
-0.3827601774610382
-0.3827478281846872
-0.3827336414427234
-0.382717397460031
-0.382698850586124
-0.3826777263692674
-0.3826537186973296
-0.3826264870161674
-0.3825956518306013
-0.3825607852915974
-0.3825214047335266
-0.3824769725087778
-0.382426889057328
-0.3823704882852653
-0.382307031993301
-0.3822356958627757
-0.3821555594718981
-0.3820655963970722
-0.3819646628599186
-0.3818514854432557
-0.3817246483012887
-0.3815825801781432
-0.3814235417616064
-0.3812456143997275
-0.3810466921933276
-0.380824481177412
-0.3805765114997341
-0.3803001678970618
-0.3799927299697379
-0.3796513709224546
-0.3792730181534727
-0.3788541264909747
-0.37839105867428
-0.3778802360019871
-0.3773176643728605
-0.3766989056319935
-0.376019179658958
-0.3752733355519963
-0.3744557983061526
-0.3735605204363612
-0.3725809364037999
-0.3715099168593644
-0.3703397214870378
-0.3690619491723047
-0.3676674841478806
-0.3661464373845258
-0.3644880835385794
-0.3626807948477864
-0.3607119742629497
-0.3585679906268978
-0.3562341189305974
-0.3536944888800714
-0.3509320459705254
-0.3479285324297366
-0.3446645030552051
-0.3832655016464576
-0.3832652930066863
-0.3832650271565778
-0.3832646732057962
-0.383264172918318
-0.3832634630585035
-0.3832624736400712
-0.383261127503102
-0.3832593439038647
-0.3832570421971667
-0.3832541425217072
-0.3832505621312954
-0.3832462152998204
-0.3832410062239887
-0.3832348227897571
-0.3832275417373115
-0.3832190275388986
-0.3832091296911503
-0.383197680433079
-0.3831844925505241
-0.3831693569392353
-0.3831520398661392
-0.3831322800752036
-0.3831097863609679
-0.3830842359898314
-0.3830552705368248
-0.3830224791276301
-0.3829853944066159
-0.3829435014833426
-0.3828962308170776
-0.3828429424439932
-0.3827829216572892
-0.3827153756275927
-0.3826394162474913
-0.3825540496677147
-0.3824581661810284
-0.3823505284133615
-0.3822297580293361
-0.3820943215966107
-0.3819425162845778
-0.3817724564637938
-0.3815820630962041
-0.3813690589857034
-0.3811309737736421
-0.3808651620367514
-0.3805688349888959
-0.380239095347185
-0.3798729221654467
-0.37946697552586
-0.3790172527455056
-0.378519862531412
-0.3779710055664217
-0.3773661315604291
-0.3767003119073781
-0.3759682556056652
-0.3751642437941737
-0.3742820731845718
-0.3733150103159157
-0.3722557477286311
-0.371096359871271
-0.3698282584556788
-0.3684421466468407
-0.3669279714895011
-0.3652748745260732
-0.3634711411530783
-0.3615041496439713
-0.3593603208897945
-0.3570250699219529
-0.3544827606690854
-0.3517166670347099
-0.3487089476415821
-0.3454406506187674
-0.3836219304225603
-0.3836217270510224
-0.3836214680494699
-0.3836211226004207
-0.3836206338151618
-0.3836199403019072
-0.3836189742595317
-0.383617660861911
-0.3836159214869208
-0.3836136771597301
-0.3836108494756942
-0.3836073580062914
-0.3836031171049881
-0.3835980302910863
-0.3835919874080902
-0.3835848666540523
-0.3835765333869097
-0.3835668378340116
-0.3835556129476114
-0.3835426721940852
-0.3835278070434812
-0.3835107843457686
-0.3834913447125345
-0.3834692038325676
-0.3834440536785567
-0.3834155432034027
-0.383383255911748
-0.383346724117674
-0.3833054392805496
-0.3832588362771431
-0.3832062740607856
-0.383147036754989
-0.3830803436157048
-0.3830053267452805
-0.382921006586275
-0.382826282580553
-0.382719924930892
-0.382600563381937
-0.382466673641229
-0.3823165626971773
-0.3821483543936124
-0.3819599770575824
-0.3817491557046561
-0.381513412283672
-0.3812500789235848
-0.3809563302592067
-0.3806292314626241
-0.3802657453819952
-0.3798625436029582
-0.3794156177100633
-0.3789211464786487
-0.3783753478950409
-0.3777735686401203
-0.3771108465706441
-0.3763818846956299
-0.3755809607160739
-0.3747018667185089
-0.3737378628923912
-0.3726816311521025
-0.3715252276409862
-0.3702600350122753
-0.3688767144448046
-0.3673651573269509
-0.3657144372696466
-0.3639127638208615
-0.3619474396227813
-0.3598048226313136
-0.3574702944753901
-0.3549282355679921
-0.3521620081646316
-0.349153951918369
-0.3458854051096586
-0.3840312470206956
-0.3840310629861344
-0.384030822135957
-0.3840304916968531
-0.38403001452555
-0.3840293281080519
-0.3840283628954024
-0.3840270421125516
-0.3840252851739176
-0.3840230112688958
-0.3840201408283289
-0.3840165939051567
-0.3840122824883743
-0.3840071061692449
-0.384000953539897
-0.3839937008019501
-0.383985210430069
-0.3839753290868425
-0.3839638854391023
-0.3839506877816725
-0.383935521521645
-0.3839181473988112
-0.3838983026952686
-0.3838757053782265
-0.3838500453346331
-0.3838209512183911
-0.383787989981579
-0.383750690994241
-0.3837085381091212
-0.3836609555978397
-0.3836072929921859
-0.3835468112778683
-0.3834787010236226
-0.3834020882437909
-0.3833159951622573
-0.3832193144383397
-0.3831108013367056
-0.3829890662336093
-0.3828525635217556
-0.3826995779829386
-0.3825282101824342
-0.3823363627479646
-0.3821217303482823
-0.3818817978784017
-0.3816138532355908
-0.3813150195846505
-0.3809822962584129
-0.3806125532550509
-0.3802023875711502
-0.3797479290582508
-0.3792455364553585
-0.3786913462140974
-0.3780806061734654
-0.3774083642121887
-0.3766693658218359
-0.3758579426015728
-0.3749679555193185
-0.3739927505983142
-0.3729251109147361
-0.3717572066865199
-0.3704805452439381
-0.3690859207044597
-0.367563363066458
-0.3659020872326428
-0.3640904433241984
-0.3621158703475726
-0.3599648556541106
-0.3576229026383334
-0.3550745090467353
-0.352303158780113
-0.3492913326722394
-0.3460205509346045
-0.3842621268064207
-0.3842620628429307
-0.3842619418621524
-0.3842617231738608
-0.3842613537548347
-0.3842607713214037
-0.3842599036965235
-0.3842586707565323
-0.3842569886415544
-0.3842547736913592
-0.3842519441820562
-0.3842484190465471
-0.384244108668525
-0.3842389102748572
-0.3842327102709651
-0.3842253823598081
-0.3842167863212944
-0.3842067658010268
-0.3841951459542548
-0.3841817309824858
-0.3841663018407486
-0.3841486154466618
-0.3841284071849546
-0.3841053913634358
-0.3840792382556106
-0.3840495561882172
-0.3840159089439076
-0.3839778210827636
-0.3839347645683856
-0.3838861507799746
-0.3838313217215998
-0.3837695306048649
-0.3836999322876407
-0.3836216177290017
-0.3835336024994194
-0.3834347702803815
-0.3833238602205848
-0.3831994606141891
-0.3830599990723488
-0.3829037297916035
-0.3827287194287924
-0.3825328331114605
-0.3823137234603973
-0.3820688273644213
-0.3817953757183346
-0.3814904168722528
-0.3811508423603335
-0.3807733913031212
-0.3803546251571505
-0.3798909249746257
-0.3793786336171021
-0.3788136395161343
-0.3781912358433272
-0.3775065009312972
-0.376754201872225
-0.375928705619197
-0.3750239296611129
-0.3740332967087658
-0.3729496846927776
-0.3717653755078779
-0.3704720043619326
-0.3690605096958077
-0.3675210835374609
-0.365843122659024
-0.3640151814112416
-0.3620249275774553
-0.359859102882811
-0.3575034899994543
-0.3549428883539759
-0.3521611023917566
-0.3491409494662344
-0.3458643023684341
-0.3841029327567805
-0.3841030767345575
-0.3841031664156178
-0.3841031486355728
-0.3841029797770387
-0.3841026011898955
-0.3841019400432132
-0.3841009146285932
-0.3840994395377934
-0.3840974298135301
-0.3840948028948458
-0.3840914774201681
-0.3840873633037343
-0.3840823573884936
-0.3840763459758506
-0.3840692023533351
-0.3840607860776349
-0.3840509408088116
-0.3840394919150769
-0.3840262440570633
-0.3840109790515209
-0.3839934550711189
-0.3839734073986016
-0.383950543491314
-0.3839245215004272
-0.3838949474370952
-0.3838613887439192
-0.3838233671445019
-0.3837803491917947
-0.3837317398377729
-0.3836768761862371
-0.3836150168910687
-0.3835453208976939
-0.3834668583399068
-0.3833786178598863
-0.3832794701116228
-0.3831681457267246
-0.3830432226997707
-0.3829031138301645
-0.3827460529451432
-0.3825700805554976
-0.3823730299042823
-0.3821525154594468
-0.3819059269553114
-0.3816304314615176
-0.3813229830939275
-0.3809803416069155
-0.3805991204591214
-0.3801758957262832
-0.3797072515270892
-0.3791892526540964
-0.3786175253519901
-0.3779875544155539
-0.3772943810138822
-0.3765327293861751
-0.3756969552182188
-0.3747809898540957
-0.3737782900922725
-0.3726817880263649
-0.3714838400629349
-0.3701761762378943
-0.3687498505620024
-0.3671951928671252
-0.3655017627712328
-0.3636583066675471
-0.3616527188954989
-0.3594720082901718
-0.3571022712167739
-0.3545286723520704
-0.3517354357002847
-0.3487058520681929
-0.3454223177866633
-0.3418664341789509
-0.338019224200139
-0.3338616094768937
-0.3293750613478321
-0.3245427918320962
-0.3193524414277963
-0.313798834544385
-0.3078885728577042
-0.3016358545180202
-0.2950645913945328
-0.2881961307808396
-0.281038400148016
-0.2735996216659338
-0.2658897800439543
-0.2579213715702587
-0.2497125822848882
-0.2412830285082428
-0.2326592524460266
-0.223869729921608
-0.2149515423322414
-0.3834503980833732
-0.3834507407981884
-0.3834510343200481
-0.3834512142612201
-0.3834512477452126
-0.383451082249755
-0.3834506476187721
-0.3834498642937711
-0.3834486489321877
-0.3834469184226674
-0.3834445918244958
-0.383441589214693
-0.3834378217315018
-0.3834331884376224
-0.3834275785428308
-0.3834208677911959
-0.3834129184842959
-0.3834035775631772
-0.3833926742592942
-0.3833800176795681
-0.3833653946816045
-0.3833485690703106
-0.3833292821824276
-0.3833072468451843
-0.3832821254504525
-0.3832535290915083
-0.3832210316103928
-0.3831841613535727
-0.3831423915395268
-0.3830951334310847
-0.3830417300306246
-0.3829814497538694
-0.3829134779569781
-0.3828368914031445
-0.3827506646301098
-0.3826536717236147
-0.3825446473247386
-0.3824221727003544
-0.3822846628328144
-0.3821303509629108
-0.3819572722454986
-0.38176324808479
-0.3815458723511403
-0.3813025007158378
-0.3810302444464481
-0.3807259722633912
-0.3803863344948611
-0.3800078433163617
-0.3795870174913868
-0.3791203818555761
-0.3786037985226166
-0.3780328706013537
-0.3774031151736134
-0.3767093753600041
-0.3759462474384757
-0.375108000222705
-0.3741884946963753
-0.373181134260732
-0.3720788206897878
-0.3708739076192209
-0.3695581534636056
-0.3681226756374865
-0.3665579068158752
-0.3648535536748986
-0.3629985587350024
-0.3609810661243349
-0.3587883922274058
-0.3564070022336347
-0.3538224938448084
-0.3510195905439865
-0.347982150229952
-0.3446932031734063
-0.3411350480914288
-0.3372894579221315
-0.3331381503190214
-0.3286634164258939
-0.3238491540093679
-0.3186834970780347
-0.313161623936606
-0.3072904272477402
-0.3010846059924389
-0.2945685114434849
-0.2877635739968303
-0.2806781699194051
-0.2733206233998292
-0.2656999226659277
-0.257827938193011
-0.2497216129699975
-0.2413991806801207
-0.2328854540257951
-0.2242068897741675
-0.215398562227902
-0.2064955219146584
-0.1975482280671579
-0.1885954760583649
-0.1797155075363693
-0.1709279935233756
-0.1623777660232308
-0.1539924148986147
-0.1460877064814415
-0.138348417660664
-0.1314266004398162
-0.1246753606072786
-0.1190114839670604
-0.1139064156301748
-0.1097888319089276
-0.1073143878994316
-0.1039573550407977
-0.3825351212146063
-0.3825355232424983
-0.3825358785447681
-0.3825361193686251
-0.3825362165472355
-0.3825361204738784
-0.3825357631835314
-0.3825350672887285
-0.382533951476338
-0.382532334144634
-0.382530135370529
-0.38252727562672
-0.382523666666811
-0.3825192089679294
-0.3825137929676993
-0.3825072950631742
-0.3824995781200524
-0.3824904896736939
-0.3824798594403017
-0.3824674968813047
-0.3824531898435151
-0.3824367065718826
-0.3824177990647142
-0.3823961865566512
-0.3823715272037309
-0.3823434304067559
-0.3823114738451299
-0.382275189642274
-0.382234054425463
-0.3821874829128116
-0.3821348218819791
-0.3820753438716061
-0.3820082368444548
-0.3819325711487589
-0.3818473158652591
-0.3817513556882919
-0.3816434383469415
-0.3815221489349008
-0.3813859007095761
-0.3812329238017249
-0.3810612496205489
-0.3808686934939217
-0.3806528376061997
-0.3804110158311509
-0.3801403031966445
-0.3798375169480139
-0.3794992442050477
-0.379121917225931
-0.3787019311784499
-0.3782356684758911
-0.3777190862846738
-0.3771479506477053
-0.3765176042323417
-0.3758226597241232
-0.3750576129666101
-0.3742166620692634
-0.3732935996151294
-0.372281770251446
-0.3711740341699694
-0.3699627248014979
-0.3686396058844756
-0.3671958310774985
-0.3656219069644859
-0.3639076597569455
-0.3620422058629699
-0.3600139263582342
-0.3578104453083752
-0.3554186120030829
-0.3528244877458975
-0.3500133394685538
-0.3469696463092397
-0.3436771335751639
-0.3401188635145701
-0.3362774303563268
-0.3321354231342081
-0.3276760370362261
-0.3228839510488846
-0.3177478645483697
-0.3122633458309753
-0.306437551005537
-0.3002855996203604
-0.2938321763218362
-0.2870986618087344
-0.2800937469859738
-0.2728258220752984
-0.265302798080173
-0.2575357964073365
-0.2495404460935094
-0.2413335438041743
-0.2329381420145365
-0.224378680565465
-0.215688261776422
-0.2068994912773536
-0.1980611527197493
-0.1892089660160406
-0.1804211044280292
-0.1717124757575346
-0.1632316500963036
-0.1548990519154184
-0.1470369043923669
-0.1393284084962517
-0.1324165711700127
-0.1256891475054644
-0.1200013309247372
-0.1149265061325818
-0.1108051713594697
-0.108340264191114
-0.1053339595017886
-0.3817244559965765
-0.3817248656789876
-0.3817252257983632
-0.3817254666855386
-0.3817255573341938
-0.3817254452094232
-0.3817250587193595
-0.3817243163653973
-0.3817231326054114
-0.3817214218276111
-0.3817191002529202
-0.3817160848776194
-0.3817122846960901
-0.3817075968940256
-0.3817019067394601
-0.3816950846650263
-0.3816869871209088
-0.381677454418321
-0.3816663079213645
-0.3816533477721231
-0.3816383530413741
-0.3816210868271825
-0.3816012977551749
-0.3815786858680533
-0.3815528861985056
-0.3815234974446106
-0.3814900836976762
-0.3814521598241711
-0.3814091833573606
-0.3813605486182406
-0.3813055804262802
-0.3812435271929623
-0.3811735500477306
-0.3810946977263058
-0.3810058855906809
-0.3809059483281756
-0.3807936316606106
-0.3806675060127127
-0.3805259534413641
-0.3803671651532076
-0.3801891319579324
-0.3799896289732134
-0.379766198071363
-0.3795161312137845
-0.3792364592360866
-0.3789239531223118
-0.3785751465720765
-0.3781863916785566
-0.3777539667660839
-0.377274211840307
-0.3767433872107864
-0.3761574951444203
-0.3755117218171837
-0.374800599798062
-0.3740186848794083
-0.3731602617413027
-0.3722192164883063
-0.3711890008974974
-0.3700625970770299
-0.3688324723706791
-0.3674905338749062
-0.3660280870125186
-0.3644357995889862
-0.3627036723011186
-0.3608210163213684
-0.3587764378778753
-0.3565578290353489
-0.3541523633607806
-0.3515464953187736
-0.3487259637888756
-0.3456758042790144
-0.3423803833502688
-0.3388234850242385
-0.3349884937222951
-0.3308588446123398
-0.3264186185066035
-0.3216532742061441
-0.3165520720261858
-0.3111109616073622
-0.3053373286788709
-0.2992466467904794
-0.2928638657445809
-0.2862101547102853
-0.2792943009960852
-0.2721247173164949
-0.2647081216833783
-0.2570547428993492
-0.2491788308640738
-0.2410956933032761
-0.2328266010737772
-0.224393988277401
-0.2158290338944074
-0.2071619391551252
-0.1984399332769384
-0.1896956663319661
-0.181007396098385
-0.1723852605885597
-0.1639814805925136
-0.1557097118341988
-0.147897609380923
-0.1402282012737456
-0.1333336019884721
-0.1266364102167224
-0.1209332722335118
-0.1158877724738516
-0.1117741367812653
-0.1093048406035283
-0.1066482324470212
-0.3808189191792439
-0.3808195481288373
-0.3808201263985082
-0.380820569892632
-0.3808208547641866
-0.3808209282680078
-0.3808207130322791
-0.3808201203716547
-0.380819057522325
-0.3808174324666235
-0.3808151562026022
-0.3808121418016557
-0.380808294959274
-0.3808035089254684
-0.380797663578917
-0.3807906228602003
-0.3807822367414959
-0.3807723387126121
-0.3807607427479937
-0.3807472412326188
-0.380731605115413
-0.3807135863398814
-0.3806929116361483
-0.3806692564650847
-0.3806422430538334
-0.3806114581592426
-0.3805764460066191
-0.380536698230844
-0.3804916472198319
-0.380440659899505
-0.3803830308335919
-0.3803179749500762
-0.3802446194383385
-0.3801619883733648
-0.3800689663624734
-0.3799643346685038
-0.3798467804847622
-0.3797148218876445
-0.379566792141192
-0.3794008299081304
-0.3792148662034322
-0.3790066094198905
-0.378773529355324
-0.3785128414134954
-0.378221494719394
-0.3778961703331398
-0.377533297976519
-0.3771291085548265
-0.3766797598067013
-0.3761815332763785
-0.3756307847465179
-0.3750237154502674
-0.3743555484814932
-0.3736207750673106
-0.3728140358176539
-0.3719297499398119
-0.3709619680810026
-0.3699043404502838
-0.3687500816741272
-0.3674919215381889
-0.3661220541796766
-0.3646320913659947
-0.3630130219835151
-0.3612551795457395
-0.3593482191528984
-0.3572811044307093
-0.355042103894264
-0.3526187952100595
-0.3499980753516167
-0.3471661755742521
-0.3441086837665999
-0.3408105854320646
-0.3372563516495428
-0.3334301145239712
-0.3293161046495756
-0.3248992316515793
-0.3201656811723829
-0.3151052096750156
-0.3097140826099821
-0.3039998469558675
-0.2979782437406807
-0.2916744421997023
-0.2851092732792729
-0.2782913484400278
-0.2712290008185028
-0.2639276240803085
-0.2563964120388582
-0.2486481765749879
-0.2406966911661391
-0.2325614377846399
-0.2242628679957142
-0.2158303015870927
-0.2072915883657735
-0.1986925390234198
-0.190062757790648
-0.1814807427863324
-0.1729518968732953
-0.1646319833211938
-0.1564283353243803
-0.1486730381690632
-0.1410502458173967
-0.1341796378215247
-0.1275183698802346
-0.1218080303087942
-0.1167907297420305
-0.1126946939472476
-0.1102088993238088
-0.1079016103436971
-0.3792303117534349
-0.3792313401724638
-0.3792323253174413
-0.3792331597861824
-0.3792338394564456
-0.3792343207094224
-0.3792345277061059
-0.3792343716499354
-0.3792337597669347
-0.3792326001498172
-0.3792308044057423
-0.3792282866145267
-0.3792249530539543
-0.3792206992391638
-0.3792154082288112
-0.3792089460993933
-0.3792011656680736
-0.3791919042485288
-0.3791809806087593
-0.37916819274208
-0.3791533169375292
-0.3791361062617663
-0.3791162812766217
-0.3790935194915304
-0.3790674533385192
-0.379037672908845
-0.3790037244712143
-0.3789651015788274
-0.3789212381659826
-0.3788715020311452
-0.3788151875293517
-0.3787515071213629
-0.3786795821949532
-0.3785984358280007
-0.3785069914676255
-0.3784040517790153
-0.3782882593890902
-0.3781580854532044
-0.3780118308992906
-0.377847611075592
-0.3776633307681308
-0.3774566612493219
-0.3772250204930478
-0.3769655552541171
-0.3766751260701889
-0.376350300632677
-0.3759873669949749
-0.3755823873555852
-0.3751313233191449
-0.3746302349912659
-0.3740753618739719
-0.3734629303702173
-0.3727880807052623
-0.3720451390515698
-0.371228641546289
-0.3703329443823589
-0.3693520724624394
-0.3682796977481059
-0.3671091129561084
-0.3658331879104094
-0.3644443225067773
-0.3629344024092166
-0.3612947596997422
-0.3595161403149915
-0.3575886796087854
-0.3555018864165394
-0.3532446350436812
-0.3508051639029634
-0.3481710793593316
-0.3453293643557455
-0.3422663948619522
-0.3389679752531977
-0.3354194207120965
-0.3316057235194588
-0.3275119767881275
-0.3231239468608631
-0.3184285427184053
-0.3134159594681184
-0.3080826723051537
-0.3024362471531185
-0.2964925140756033
-0.2902767245250701
-0.2838092766184804
-0.2770983908975019
-0.2701522103196373
-0.2629747193585349
-0.2555739591563584
-0.2479612552373618
-0.2401488129662284
-0.2321543351863513
-0.2239963271606371
-0.2157023301996444
-0.2072979082054781
-0.198827602930626
-0.190318013976184
-0.1818480368188034
-0.1734184106303723
-0.1651883162530478
-0.1570592468695763