/*--------------------------------*- C++ -*----------------------------------*\
| =========                 |                                                 |
| \\      /  F ield         | OpenFOAM: The Open Source CFD Toolbox           |
|  \\    /   O peration     | Version:  v1812                                 |
|   \\  /    A nd           | Web:      www.OpenFOAM.com                      |
|    \\/     M anipulation  |                                                 |
\*---------------------------------------------------------------------------*/
FoamFile
{
    version     2.0;
    format      ascii;
    class       surfaceScalarField;
    location    "1792";
    object      phi;
}
// * * * * * * * * * * * * * * * * * * * * * * * * * * * * * * * * * * * * * //

dimensions      [0 3 -1 0 0 0 0];
oriented        oriented;


internalField   nonuniform List<scalar> 
22024
(
1.785996107622274e-10
2.881139215376742e-08
7.136078149411679e-10
8.717890134305478e-08
1.613605316615003e-09
1.479668719653222e-07
2.895732821931876e-09
2.12852677625943e-07
4.582968134011146e-09
2.834165599996049e-07
6.697857891868428e-09
3.60910815934107e-07
9.254758177097233e-09
4.459912495262421e-07
1.225759273687922e-08
5.386837057996314e-07
1.570607964562117e-08
6.387655797338538e-07
1.960608554824654e-08
7.462958768083601e-07
2.397556221954917e-08
8.618829275447023e-07
2.885842528278887e-08
9.867817216700563e-07
3.431043182262238e-08
1.122685809009757e-06
4.038410724692341e-08
1.271267574324962e-06
4.713905283134747e-08
1.434136210951151e-06
5.46434914368596e-08
1.613018396614193e-06
6.297507777001529e-08
1.809796777307379e-06
7.222142342045283e-08
2.026524007765392e-06
8.2480735096351e-08
2.265436386331333e-06
9.386270590092403e-08
2.528976861460225e-06
1.064895311714284e-07
2.819818787898362e-06
1.204972025268803e-07
3.1408920907577e-06
1.360367736379531e-07
3.495413034951971e-06
1.532763166966019e-07
3.886915335619137e-06
1.724025340404555e-07
4.319286971097751e-06
1.936234424232572e-07
4.796807574247237e-06
2.171703914725445e-07
5.324192206734e-06
2.433014534705875e-07
5.906636381893115e-06
2.723042908025529e-07
6.549866941713872e-06
3.044994228436876e-07
7.260196943975942e-06
3.402432322736279e-07
8.044582986069983e-06
3.799309195359486e-07
8.910688130068746e-06
4.239971633968791e-07
9.866946289901905e-06
4.72914017549896e-07
1.092262740847064e-05
5.271840031855086e-07
1.208789936818312e-05
5.873218633569271e-07
1.33738806016968e-05
6.538214167175794e-07
1.479266909780867e-05
7.270946838112459e-07
1.635733288153138e-05
8.073729144645382e-07
1.808182832207546e-05
8.945579139005849e-07
1.998081607975698e-05
9.880281780338763e-07
2.20693414496466e-05
1.086445980907967e-06
2.436239897386928e-05
1.187677571292782e-06
2.687451680391982e-05
1.289001407281023e-06
2.961970410220643e-05
1.387746922254323e-06
3.261232521697246e-05
1.482370405988864e-06
3.586945027999505e-05
1.574024377114887e-06
3.94148579473854e-05
1.663566211709125e-06
4.327860588838592e-05
1.749824355001131e-06
4.749075469666094e-05
1.83179812438518e-06
5.208105198153569e-05
5.708258717336271e-05
1.746119285380288e-10
2.863678022233042e-08
6.97290825065928e-10
8.665622244284546e-08
1.576885083056467e-09
1.470872777092742e-07
2.831098509714502e-09
2.115984641947797e-07
4.483394713350979e-09
2.81764263789716e-07
6.556756198386934e-09
3.588374544462113e-07
9.066160443413378e-09
4.434818452831699e-07
1.201578196561456e-08
5.357340842739395e-07
1.540564751449774e-08
6.353757141920308e-07
1.924152601283147e-08
7.424599983055102e-07
2.354151936972635e-08
8.575829341741857e-07
2.834931049938799e-08
9.819739305470979e-07
3.372023787078613e-08
1.117314881635143e-06
3.97070759295625e-08
1.265280736266507e-06
4.636968621193075e-08
1.427473600663495e-06
5.377688162742468e-08
1.605611201197381e-06
6.200706958665276e-08
1.801566589345893e-06
7.114841235656964e-08
2.017382664998746e-06
8.130017680890436e-08
2.255284621872815e-06
9.257278477139516e-08
2.517704253496781e-06
1.050893175055059e-07
2.807302255164941e-06
1.189860716154203e-07
3.126995336649586e-06
1.344145905625117e-07
3.479984516007631e-06
1.515425056411899e-07
3.869787420541704e-06
1.705558055758949e-07
4.300273671160963e-06
1.916600994998339e-07
4.775703280326624e-06
2.15083891833181e-07
5.300768414402186e-06
2.410800613095909e-07
5.880640212421644e-06
2.699290658674632e-07
6.521017937154561e-06
3.019419736553747e-07
7.228184036189775e-06
3.374631492212353e-07
8.009061810509441e-06
3.768725951023145e-07
8.871278684183374e-06
4.205880519442857e-07
9.823230833063099e-06
4.690641128141551e-07
1.087415134760091e-05
5.227874895412936e-07
1.203417599145598e-05
5.822657863033095e-07
1.331440230493637e-05
6.480015067410329e-07
1.472693337736787e-05
7.204477127279217e-07
1.628488667554229e-05
7.999291652178336e-07
1.800234686958069e-05
8.865216773367359e-07
1.989422356763999e-05
9.79882614282563e-07
2.197598051270178e-05
1.079051487915058e-06
2.426323010023551e-05
1.182291194712777e-06
2.67712770971134e-05
1.287116610862659e-06
2.951487868605181e-05
1.390738672712948e-06
3.250870315511484e-05
1.491159281941792e-06
3.576902967076015e-05
1.589010051374422e-06
3.931700717793976e-05
1.68538886951526e-06
4.318222707023359e-05
1.779659727447486e-06
4.739648383871777e-05
1.870843225681266e-06
5.198986848534056e-05
1.958181383065608e-06
5.699524901456446e-05
6.244924712578671e-05
1.792275785009527e-10
2.845755264387368e-08
7.167893066457011e-10
8.611866072061552e-08
1.621967291654116e-09
1.461820997249541e-07
2.912701737372024e-09
2.103077297498854e-07
4.612800617961746e-09
2.800641649125202e-07
6.74555817794595e-09
3.567046968873843e-07
9.325543727188251e-09
4.409018597382889e-07
1.235603498419163e-08
5.327035930165699e-07
1.583529370786242e-08
6.31896455474233e-07
1.976725835924274e-08
7.385280336492734e-07
2.416824371286895e-08
8.531819488222618e-07
2.908064822196825e-08
9.770615260376158e-07
3.455840489576658e-08
1.111837124961061e-06
4.065344509889992e-08
1.259185696062686e-06
4.742494217698284e-08
1.420702103586739e-06
5.494116527240757e-08
1.59809497810345e-06
6.328030416611583e-08
1.793227450455291e-06
7.253096845922769e-08
2.008132000705978e-06
8.279252958114759e-08
2.245023060753884e-06
9.417632956501421e-08
2.506320453512959e-06
1.068063369522086e-07
2.794672247779386e-06
1.208204439087858e-07
3.112981229694034e-06
1.363715244159745e-07
3.464433435501052e-06
1.536289384619656e-07
3.852530006497578e-06
1.727799732546908e-07
4.28112263636771e-06
1.940319958467031e-07
4.754451257737364e-06
2.176136784765226e-07
5.277186731767743e-06
2.437779750521253e-07
5.854475915841135e-06
2.728039364240249e-07
6.491991975783561e-06
3.049993897817268e-07
7.195988582829284e-06
3.407034477792723e-07
7.973357752511648e-06
3.802891989010927e-07
8.831692933060246e-06
4.24164782905892e-07
9.779355249055752e-06
4.727741325691478e-07
1.082554199793508e-05
5.265943259984217e-07
1.198035579802977e-05
5.861268915668739e-07
1.325486973936698e-05
6.518804318523349e-07
1.466117983707457e-05
7.243358346923547e-07
1.621243127269901e-05
8.038854744686308e-07
1.792279722979851e-05
8.907333925338872e-07
1.98073756495708e-05
9.847464656619244e-07
2.188196743956887e-05
1.085262245737286e-06
2.416271432015226e-05
1.19090582451652e-06
2.666563351832604e-05
1.299548935157575e-06
2.940623557540698e-05
1.40862198867258e-06
3.239963010158869e-05
1.515936132986603e-06
3.56617155264315e-05
1.620926562531907e-06
3.921201674838344e-05
1.724704231767676e-06
4.307844940098256e-05
1.82760006710671e-06
4.729358800336033e-05
1.928660123053109e-06
5.188880842938389e-05
2.027130914755215e-06
5.689677822506071e-05
2.122523448704232e-06
6.235385459135041e-05
6.830057330046448e-05
2.006175008811522e-10
2.825693514532906e-08
7.994774401444394e-10
8.551980078894246e-08
1.805088626659272e-09
1.45176488540179e-07
3.236013959382803e-09
2.088768044168803e-07
5.117316965170558e-09
2.781828619169591e-07
7.473473458423567e-09
3.543485403923543e-07
1.031994944209494e-08
4.380553837589657e-07
1.365954273534457e-08
5.293639997260894e-07
1.748972392145021e-08
6.280662742846761e-07
2.181392647983877e-08
7.342038310916472e-07
2.664852980991509e-08
8.483473454975029e-07
3.203723258656122e-08
9.716728232651723e-07
3.803594522101093e-08
1.105838412323501e-06
4.469798636959321e-08
1.252523654910503e-06
5.208415557261202e-08
1.41331593438971e-06
6.026480136960424e-08
1.589914332302688e-06
6.932004047393354e-08
1.784172211350137e-06
7.934101855929316e-08
1.998111022623395e-06
9.042987516859658e-08
2.233934204147905e-06
1.027012748236726e-07
2.494049053857017e-06
1.162828354602483e-07
2.781090687144024e-06
1.31316689981746e-07
3.097947375173073e-06
1.479607430133054e-07
3.447789382470344e-06
1.663900806191378e-07
3.834100668889858e-06
1.867986811785485e-07
4.260714035807836e-06
2.094010606220753e-07
4.731848878292276e-06
2.344343727284598e-07
5.252153419663307e-06
2.621602402390658e-07
5.826750048329287e-06
2.928667928086084e-07
6.461285423216417e-06
3.268717107662803e-07
7.161983664875473e-06
3.64523469238548e-07
7.935705994036035e-06
4.062042249457336e-07
8.790012177351523e-06
4.523313501792429e-07
9.733228123821284e-06
5.033581087372818e-07
1.077451523938064e-05
5.597719970639269e-07
1.192394190970543e-05
6.22089756384816e-07
1.319255198005271e-05
6.90843602860304e-07
1.459242599059799e-05
7.665552877419506e-07
1.613671958782222e-05
8.496873919611946e-07
1.783966512558463e-05
9.405618993039136e-07
1.971650114223386e-05
1.039232728231332e-06
2.17832966106466e-05
1.145315288609134e-06
2.40566317597825e-05
1.257805339477915e-06
2.655314346747404e-05
1.37497892264125e-06
2.928906199225221e-05
1.494526293492067e-06
3.228008273075264e-05
1.614076341701131e-06
3.554216547823999e-05
1.732209556933016e-06
3.909388353316368e-05
1.850083988561412e-06
4.296057496937479e-05
1.968705391004207e-06
4.717496660093783e-05
2.087229393305407e-06
5.177028442709696e-05
2.204974353767329e-06
5.677903326463018e-05
2.321503814234677e-06
6.223732513344135e-05
2.436673487698407e-06
6.818540362783272e-05
7.466813208504335e-05
2.082372945711752e-10
2.804869785017119e-08
8.302497026025154e-10
8.489778837846212e-08
1.87534246584389e-09
1.441313957745301e-07
3.363298634084355e-09
2.073888482456971e-07
5.320696778274843e-09
2.762254637702588e-07
7.773687148903598e-09
3.518955500222145e-07
1.073890385383819e-08
4.350901670600834e-07
1.422018623191924e-08
5.258827173426597e-07
1.821554438844152e-08
6.240709161308766e-07
2.272895673833698e-08
7.296904187393154e-07
2.777802774824198e-08
8.432982744807204e-07
3.340920969931881e-08
9.660416413121718e-07
3.968166413364303e-08
1.099565957890086e-06
4.665098774442914e-08
1.245554331307829e-06
5.438039587051873e-08
1.405586526261889e-06
6.294214064401465e-08
1.581352587529991e-06
7.241860968444841e-08
1.77469574231248e-06
8.290265119348209e-08
1.987626981114089e-06
9.449808900547428e-08
2.222338766338193e-06
1.073205538674952e-07
2.481226588993837e-06
1.214986110318083e-07
2.766912629978062e-06
1.371747511100795e-07
3.082271235094649e-06
1.545070156830772e-07
3.430457117892561e-06
1.736701107981088e-07
3.814937573777066e-06
1.94857605103443e-07
4.239526541501152e-06
2.182833971218537e-07
4.708423086273259e-06
2.441837136357988e-07
5.226253103148538e-06
2.728195493578483e-07
5.798114212612464e-06
3.044784229636091e-07
6.429626549610093e-06
3.394767083326681e-07
7.126985379509296e-06
3.781620269869511e-07
7.897020675384701e-06
4.209150647956946e-07
8.747259139542144e-06
4.681511496466588e-07
9.685992038969963e-06
5.203209112383729e-07
1.072234547779271e-05
5.779096293674637e-07
1.186635319158321e-05
6.414328863686889e-07
1.312902872305712e-05
7.114270099630546e-07
1.452243186700373e-05
7.884280876467171e-07
1.605971851014218e-05
8.72934515167907e-07
1.775515869807266e-05
9.653402932707391e-07
1.962409536413686e-05
1.06583045218469e-06
2.168280645173977e-05
1.174230857514252e-06
2.394823135446279e-05
1.289826164285849e-06
2.643754816071398e-05
1.411203312509824e-06
2.916768484404567e-05
1.536255637951746e-06
3.21550304053268e-05
1.662568979726201e-06
3.54158521364868e-05
1.788424923327497e-06
3.896802758958456e-05
1.914502964879522e-06
4.283449692784564e-05
2.042001902981458e-06
4.704746766286352e-05
2.170577279801105e-06
5.164170905030727e-05
2.299533200494361e-06
5.665007734397081e-05
2.428410773863935e-06
6.210844756011982e-05
2.557039917940761e-06
6.805677448382649e-05
2.685566445738002e-06
7.453960555733294e-05
2.814460395938753e-06
8.160657459646992e-05
2.944508827196571e-06
8.931289016512836e-05
3.076801690604122e-06
9.771983612194469e-05
3.212715752707451e-06
0.0001068953082818125
3.353898054147469e-06
0.0001169144036562826
3.502250761679797e-06
0.0001278600711022872
3.659913034092352e-06
0.0001398238320318493
3.829237065069117e-06
0.0001529065657926968
4.012757456385037e-06
0.0001672193657081915
4.213151671931655e-06
0.0001828844721238686
4.433198941697727e-06
0.0002000363020707332
0.000218822610896749
1.912252886938734e-10
2.785747255982284e-08
7.664344983139524e-10
8.432257917173634e-08
1.737757213475637e-09
1.431600730590195e-07
3.126984897662526e-09
2.059996205607503e-07
4.96244662516768e-09
2.743900020395452e-07
7.271912196823794e-09
3.495860844492425e-07
1.007372911132989e-08
4.322883501458863e-07
1.337306333197118e-08
5.225833831234435e-07
1.71687090843933e-08
6.202752703830487e-07
2.146509238560961e-08
7.253940354395212e-07
2.627978740401162e-08
8.384835794629077e-07
3.165923890141601e-08
9.606621898135749e-07
3.76627700822339e-08
1.093562426712153e-06
4.434702396033197e-08
1.23887007743483e-06
5.177621593130379e-08
1.398157334289182e-06
6.002424124916301e-08
1.573104562215496e-06
6.917499157807704e-08
1.76554499198562e-06
7.932284286410049e-08
1.97747912982659e-06
9.057330523619781e-08
2.211088303966531e-06
1.030432610748306e-07
2.468756633157885e-06
1.168623025341577e-07
2.753093588520652e-06
1.321735429024206e-07
3.066959994730296e-06
1.491347816808825e-07
3.413495879114765e-06
1.679201098002694e-07
3.796152245658841e-06
1.887213986830371e-07
4.218725252617872e-06
2.117505072406759e-07
4.685393977722498e-06
2.372411982719555e-07
5.200762412116418e-06
2.654503592209194e-07
5.769905051665118e-06
2.966604464610929e-07
6.398416462368205e-06
3.311810541501732e-07
7.092464771825687e-06
3.693516009429728e-07
7.858850128597518e-06
4.115439701984734e-07
8.705066770291353e-06
4.581647819481595e-07
9.639371227226768e-06
5.096567487239449e-07
1.067085351102532e-05
5.664973320260739e-07
1.180951260828623e-05
6.291964975751419e-07
1.306632955751677e-05
6.982887176586556e-07
1.445333964693448e-05
7.743172293830004e-07
1.598368999843217e-05
8.578040849483445e-07
1.767167184252715e-05
9.491968588054491e-07
1.953270259030589e-05
1.048780965526921e-06
2.158322234503928e-05
1.156546714007595e-06
2.384046560601366e-05
1.272013679137969e-06
2.632208119562203e-05
1.394061167214231e-06
2.904563735601864e-05
1.520886406286726e-06
3.202820516630342e-05
1.650290909873498e-06
3.528644763295842e-05
1.78044308646781e-06
3.88378754130528e-05
1.911013197919538e-06
4.270392681646904e-05
2.043217714167972e-06
4.691526314669908e-05
2.177573592728995e-06
5.150735317183715e-05
2.313426249020958e-06
5.651422468778368e-05
2.450327494969693e-06
6.19715463142916e-05
2.588105868286715e-06
6.791899611063793e-05
2.726904639060878e-06
7.440080678669968e-05
2.867197124864283e-06
8.146628211081829e-05
3.009783628943444e-06
8.917030366121324e-05
3.155778528494425e-06
9.75738412225691e-05
3.306593290575131e-06
0.0001067444935199193
3.463920315056121e-06
0.0001167570766319974
3.629715493278905e-06
0.0001276942759242614
3.806181625435009e-06
0.0001396473658998942
3.995745711413878e-06
0.000152717001706911
4.201030808864977e-06
0.0001670140806109112
4.424819939279149e-06
0.0001826606829936438
4.670014990699662e-06
0.0001997911070205858
4.939602072571833e-06
0.0002185530238154152
0.0002391087936350694
1.966503159174632e-10
2.766082224582456e-08
7.889566909069317e-10
8.373027279872547e-08
1.788601777390741e-09
1.421604279830389e-07
3.216378433837132e-09
2.045718439016042e-07
5.099704368385228e-09
2.725066761043124e-07
7.465427573367919e-09
3.472203612475756e-07
1.033034749311797e-08
4.294234302307796e-07
1.369736310117517e-08
5.192163675105683e-07
1.756221146095804e-08
6.164104220282492e-07
2.192557945547057e-08
7.210306674383501e-07
2.680173041712048e-08
8.336074284953942e-07
3.223254711680655e-08
9.552313731181958e-07
3.827313797752227e-08
1.087521835854217e-06
4.497670340932431e-08
1.232166512004948e-06
5.240479186542154e-08
1.390729245835744e-06
6.062868429910742e-08
1.564880669778957e-06
6.973056516713613e-08
1.756443111116393e-06
7.980356436652712e-08
1.967406130628074e-06
9.095244360130628e-08
2.199939424734383e-06
1.032945660801942e-07
2.456414510679601e-06
1.169606383821956e-07
2.739427516222967e-06
1.320960412065449e-07
3.051824591902878e-06
1.488621240534629e-07
3.396729796263856e-06
1.674376392572859e-07
3.777576730454706e-06
1.8801860568073e-07
4.198144286195926e-06
2.108151835866669e-07
4.662597399819874e-06
2.36040051012768e-07
5.175537544691074e-06
2.63925509390334e-07
5.742019593290573e-06
2.947554533603964e-07
6.36758651839853e-06
3.288610706099067e-07
7.058359154581247e-06
3.665978264147293e-07
7.821113372793482e-06
4.083378229476204e-07
8.663326773761585e-06
4.544793003578038e-07
9.593229749821936e-06
5.054530457886962e-07
1.061987976559885e-05
5.617251478776539e-07
1.17532405062035e-05
6.23795810579626e-07
1.300425889482447e-05
6.921942281252903e-07
1.438494122939291e-05
7.674648488605815e-07
1.590841937771072e-05
8.50143360581726e-07
1.758899333081524e-05
9.407124943175645e-07
1.944213345658482e-05
1.039527081218798e-06
2.148440775815724e-05
1.146697572613365e-06
2.373329511464192e-05
1.261935649012363e-06
2.620684311924934e-05
1.384393132456854e-06
2.89231798726061e-05
1.512591059560255e-06
3.190000723923449e-05
1.644578371727406e-06
3.515446032082919e-05
1.778440383266069e-06
3.870401340155891e-05
1.913149207254686e-06
4.256921799253821e-05
2.049742280947661e-06
4.677867007306278e-05
2.189148049434598e-06
5.136794740342285e-05
2.330851919307442e-06
5.63725208179896e-05
2.474489657887883e-06
6.182790857579823e-05
2.619932683736368e-06
6.777355308488775e-05
2.767345436461241e-06
7.425339403408631e-05
2.917216161308802e-06
8.1316411386093e-05
3.070365361249177e-06
8.901715446140796e-05
3.227939232452898e-06
9.741626735151016e-05
3.391395475355817e-06
0.0001065810372771743
3.562487540918109e-06
0.0001165859845666048
3.743248502974794e-06
0.0001275135149623804
3.935973309155561e-06
0.0001394546410938889
4.143198200105343e-06
0.0001525097768161416
4.36767109649091e-06
0.0001667896077146941
4.612316770006977e-06
0.0001824160373202763
4.880195394052267e-06
0.0001995232283967093
5.174461323527354e-06
0.0002182587578871164
5.49833599955013e-06
0.0002387849189595517
0.0002612801913182546
2.598917454056753e-10
2.740093049907882e-08
1.029583472821126e-09
8.296058106646163e-08
2.314680051073359e-09
1.408753314063387e-07
4.133710328006292e-09
2.02752813625004e-07
6.513283009618279e-09
2.701271034210213e-07
9.479636970651794e-09
3.442540072875143e-07
1.304810126409251e-08
4.258549659296481e-07
1.721856629642158e-08
5.150459024817658e-07
2.198331196170223e-08
6.11645676363028e-07
2.734062731574559e-08
7.156733520816441e-07
3.330372743857646e-08
8.276443283794388e-07
3.991696313368271e-08
9.486181374180845e-07
4.723790827784354e-08
1.080200890706733e-06
5.532024230619852e-08
1.224084177981194e-06
6.422582243821204e-08
1.38182366570529e-06
7.402628584126498e-08
1.555080206373494e-06
8.480412174313412e-08
1.745665275215078e-06
9.665306304616637e-08
1.955557189328907e-06
1.096789941943579e-07
2.186913493584614e-06
1.240008839000114e-07
2.442092620976068e-06
1.397520446567032e-07
2.723676355470516e-06
1.570819842188167e-07
3.034494652342904e-06
1.761575013930563e-07
3.377654279092958e-06
1.971632465587526e-07
3.756570985289195e-06
2.203004815915777e-07
4.175007051166154e-06
2.457784053642869e-07
4.637119476052305e-06
2.738068831543255e-07
5.147509066902949e-06
3.046192500700361e-07
5.71120722638248e-06
3.385025919429253e-07
6.333703176529388e-06
3.758073788654808e-07
7.021054367664363e-06
4.169236568090347e-07
7.779997094855652e-06
4.62251771472442e-07
8.617998659105487e-06
5.122098603456961e-07
9.543271660964005e-06
5.672422715514735e-07
1.05648473544011e-05
6.278258810504945e-07
1.169265689671717e-05
6.944713294968517e-07
1.293761344638854e-05
7.677203935392216e-07
1.431169216536771e-05
8.481367527134778e-07
1.582800301855465e-05
9.362850208762066e-07
1.750084506267428e-05
1.032693385489852e-06
1.934572509199985e-05
1.137789539375044e-06
2.137931160430584e-05
1.251802181623223e-06
2.361928247242996e-05
1.374621912924095e-06
2.608402338799536e-05
1.505643376979358e-06
2.879215840860483e-05
1.643642731478533e-06
3.176200788479822e-05
1.786810447761754e-06
3.501129260462025e-05
1.933117645289906e-06
3.855770620411207e-05
2.081233949192068e-06
4.242110168873237e-05
2.232163932855558e-06
4.662774008950177e-05
2.386940630789719e-06
5.121317070560963e-05
2.545064640647348e-06
5.621439680826331e-05
2.706183719663329e-06
6.166678949693182e-05
2.87016914487587e-06
6.760956765983747e-05
3.037166869850298e-06
7.408639630929134e-05
3.207630188859951e-06
8.114594806727942e-05
3.382335026756716e-06
8.884244962372111e-05
3.562379336087543e-06
9.723622304240231e-05
3.749173770223506e-06
0.0001063942428432692
3.94442983532632e-06
0.0001163907285017451
4.150145484954076e-06
0.0001273077993130051
4.368592842864711e-06
0.0001392361937362317
4.60230044946967e-06
0.0001522760692097871
4.854032359828356e-06
0.0001665378758045731
5.126758347019527e-06
0.0001821433113333023
5.423618173532974e-06
0.0001992263685703768
5.747885056638937e-06
0.0002179344910042122
6.102935194847611e-06
0.0002384298688215774
6.492237752121184e-06
0.0002608908887617326
6.919375785949016e-06
0.0002855137232538958
0.000312513927221341
2.929532440773642e-10
2.710797725482889e-08
1.161102070624503e-09
8.209243223222622e-08
2.611635420496202e-09
1.394247980585923e-07
4.666464658062728e-09
2.006979843806185e-07
7.356756967674354e-09
2.674368111071237e-07
1.071382294093431e-08
3.408969413105088e-07
1.475760543908527e-08
4.218111834376645e-07
1.949198544030183e-08
5.103115224847729e-07
2.491320117167409e-08
6.062244606279404e-07
3.102422787479475e-08
7.095623253697535e-07
3.784465630449911e-08
8.208238999511466e-07
4.543134869730057e-08
9.410314450211804e-07
5.385547391204704e-08
1.07177676549601e-06
6.318113528112759e-08
1.214758516615785e-06
7.347942786750108e-08
1.371525373116472e-06
8.483113530556352e-08
1.543728498935656e-06
9.732705831687085e-08
1.733169352204689e-06
1.110686971404014e-07
1.941815550506041e-06
1.261684358240793e-07
2.171813754900001e-06
1.427504635382787e-07
2.42551059325845e-06
1.609520715292265e-07
2.705474747477593e-06
1.809247548250506e-07
3.014521969046249e-06
2.028354089270066e-07
3.355743624991438e-06
2.268674338331232e-07
3.732538960385016e-06
2.532207800766086e-07
4.148653704925429e-06
2.821109704026742e-07
4.608229285729491e-06
3.137727516517157e-07
5.115847285655156e-06
3.484667351305708e-07
5.676513242904143e-06
3.86480925383884e-07
6.295688986275538e-06
4.281466494337828e-07
6.979388643616741e-06
4.738444974242881e-07
7.734299246868757e-06
5.239862969967177e-07
8.567856859532351e-06
5.79010989712882e-07
9.488246968252562e-06
6.393862227497461e-07
1.050447212136461e-05
7.056099687523556e-07
1.162643315071884e-05
7.782119914392425e-07
1.286501142370552e-05
8.577521562463593e-07
1.423215200056113e-05
9.448135710628541e-07
1.574094160374639e-05
1.03998698377257e-06
1.740567164997469e-05
1.143840364893773e-06
1.924187171089154e-05
1.25686625337281e-06
2.126628571583506e-05
1.379396420838478e-06
2.349675230498388e-05
1.511477392995093e-06
2.595194241585598e-05
1.652709088440687e-06
2.865092671318177e-05
1.802088302099019e-06
3.161262867116677e-05
1.957968853401011e-06
3.485541205334735e-05
2.118345148711567e-06
3.839732990883825e-05
2.281694372233369e-06
4.225775246524763e-05
2.448460500618848e-06
4.646097396115818e-05
2.619958331824317e-06
5.104167287445506e-05
2.796311776950977e-06
5.60380433631931e-05
2.977033008538879e-06
6.148606826540814e-05
3.16190744814459e-06
6.742469322030284e-05
3.351024352094874e-06
7.389727940542435e-05
3.544794205257571e-06
8.095217821420523e-05
3.743953750964249e-06
8.864329007811265e-05
3.949560835619152e-06
9.703061595785103e-05
4.162984193969281e-06
0.0001061808194850385
4.385888732702451e-06
0.0001161678239631387
4.620224094705459e-06
0.0001270734639511392
4.868210778804256e-06
0.0001389882070522742
5.132327415639205e-06
0.0001520119525730964
5.415292666548621e-06
0.0001662549105538079
5.720041862570447e-06
0.0001818385621374119
6.049699306360658e-06
0.0001988967111267007
6.407546998217657e-06
0.0002175766433124382
6.797000653895696e-06
0.0002380404151659532
7.221600090116803e-06
0.0002604662893255934
7.685025647210869e-06
0.0002850502976968982
8.191146986132735e-06
0.0003120078058832257
8.744089015568215e-06
0.0003415747495663094
0.0003740077869384655
2.498602205841053e-10
2.685811703324916e-08
1.002397925064866e-09
8.133989451706806e-08
2.27347508389315e-09
1.381537209070284e-07
4.09107494559432e-09
1.988803845128346e-07
6.491946624374897e-09
2.650359394318575e-07
9.513127105054404e-09
3.3787576082404e-07
1.318095327815489e-08
4.181433572669242e-07
1.750594316136689e-08
5.059865325936825e-07
2.249045135809561e-08
6.012399524310984e-07
2.814345792265968e-08
7.039093188119394e-07
3.449027506085387e-08
8.144770828211406e-07
4.159526093922771e-08
9.339264591455992e-07
4.953914544689135e-08
1.063832880993661e-06
5.839541748362086e-08
1.205902244576886e-06
6.824570317217093e-08
1.361675087429978e-06
7.918162460833055e-08
1.532792577500727e-06
9.130513689428174e-08
1.721045839921082e-06
1.047287510547701e-07
1.928391936347928e-06
1.195754651972986e-07
2.15696704075823e-06
1.359793132264405e-07
2.409106745231442e-06
1.540859236108863e-07
2.6873681370979e-06
1.740534011366074e-07
2.9945544915198e-06
1.960539674132117e-07
3.33374305871349e-06
2.202740711861866e-07
3.708318856615276e-06
2.469129908158992e-07
4.122014785300083e-06
2.761755437174545e-07
4.57896673282963e-06
3.082899617020419e-07
5.083732867669113e-06
3.435195232214061e-07
5.641283681388699e-06
3.82151540364938e-07
6.257056969136786e-06
4.244991062084868e-07
6.937041077775466e-06
4.709223372711095e-07
7.687876015810408e-06
5.218261358995444e-07
8.516953060907068e-06
5.776388820443009e-07
9.43243422211418e-06
6.38818941398105e-07
1.044329206201185e-05
7.05859076815552e-07
1.155939301530604e-05
7.792865181804505e-07
1.279158398234808e-05
8.596604825053932e-07
1.415177803624584e-05
9.47566238273937e-07
1.565303584798888e-05
1.043601725772788e-06
1.730963616248766e-05
1.148353480648635e-06
1.913711995603239e-05
1.262352546166658e-06
2.115228665033569e-05
1.38600232073082e-06
2.337310253043969e-05
1.519466251823419e-06
2.581847848479624e-05
1.662516570539098e-06
2.850787639449609e-05
1.81437653922288e-06
3.146076870252489e-05
1.973651683788248e-06
3.469613690882587e-05
2.138518044289665e-06
3.823246354838863e-05
2.307305179367098e-06
4.208896533022927e-05
2.479477059783873e-06
4.628880208080644e-05
2.656567316105373e-06
5.086458261820916e-05
2.839686141768586e-06
5.585492453761203e-05
3.028343254105072e-06
6.129741115316249e-05
3.222291038854945e-06
6.723074543565672e-05
3.421592231995334e-06
7.369797821239461e-05
3.62664890031396e-06
8.074712154601097e-05
3.838209922827181e-06
8.843172905572818e-05
4.057362940054216e-06
9.681146294076598e-05
4.285518194501107e-06
0.0001059526642307432
4.524391805012231e-06
0.0001159289503527893
4.775988655022284e-06
0.0001268218671013022
5.042587773597311e-06
0.0001387216079338758
5.326727480345749e-06
0.0001517278128665361
5.631186597163757e-06
0.0001659504514371824
5.958960628776849e-06
0.0001815107881059953
6.313231291867354e-06
0.0001985424404638051
6.697335243856483e-06
0.0002171925393606385
7.114736471621087e-06
0.0002376230139383617
7.569013323545929e-06
0.0002600120124738144
8.063870699743737e-06
0.0002845554403208144
8.603180070956632e-06
0.0003114684965127168
9.191041169636928e-06
0.0003409868884675092
0.0003733670133402395
2.10479630234657e-10
2.664763740340089e-08
8.483420531058616e-10
8.070203209299539e-08
1.931235344376162e-09
1.370708276146807e-07
3.487629244754119e-09
1.973239906144673e-07
5.553893755099697e-09
2.62969674923786e-07
8.16647022938165e-09
3.352631843443933e-07
1.135139647321548e-08
4.149584310212498e-07
1.511907376659236e-08
5.022188552940287e-07
1.947118322849735e-08
5.968878429710608e-07
2.441462299993336e-08
6.989658790362608e-07
2.997170317120768e-08
8.089200026552795e-07
3.61948158537671e-08
9.277033464571923e-07
4.31585830221152e-08
1.056869113828752e-06
5.094073482852932e-08
1.198120092765989e-06
5.962420330499796e-08
1.352991618956663e-06
6.930265826889998e-08
1.523114122534339e-06
8.008183555841976e-08
1.710266662632025e-06
9.207981742525224e-08
1.916393954483044e-06
1.054273247143475e-07
2.143619533472396e-06
1.202681243360817e-07
2.394265945607436e-06
1.367601830109406e-07
2.670876078423832e-06
1.550762031577719e-07
2.976238471376122e-06
1.754027851533148e-07
3.313416476719383e-06
1.979347944486074e-07
3.685786847321971e-06
2.228550143450552e-07
4.097094565401669e-06
2.503413286671867e-07
4.55148041850426e-06
2.806113303005465e-07
5.053462866036502e-06
3.139244952672989e-07
5.607970516422826e-06
3.50561006247753e-07
6.220420458158101e-06
3.908242614165659e-07
6.896777822607359e-06
4.350715158866313e-07
7.643628761340873e-06
4.837241937257767e-07
8.468300383071099e-06
5.372192942936634e-07
9.378939121546046e-06
5.959973975192971e-07
1.038451395879057e-05
6.605233882404475e-07
1.149486702458997e-05
7.312982760423396e-07
1.272080909454819e-05
8.088619641290913e-07
1.407421434816379e-05
8.937890264617486e-07
1.5568108785663e-05
9.866759672633595e-07
1.72167492216907e-05
1.088120030709352e-06
1.903567589259364e-05
1.198681241376292e-06
2.104172543968043e-05
1.318819968650858e-06
2.325296380318118e-05
1.448798463376413e-06
2.568849999008528e-05
1.588545813914483e-06
2.836812904397313e-05