/*--------------------------------*- C++ -*----------------------------------*\
| =========                 |                                                 |
| \\      /  F ield         | OpenFOAM: The Open Source CFD Toolbox           |
|  \\    /   O peration     | Version:  v1812                                 |
|   \\  /    A nd           | Web:      www.OpenFOAM.com                      |
|    \\/     M anipulation  |                                                 |
\*---------------------------------------------------------------------------*/
FoamFile
{
    version     2.0;
    format      ascii;
    class       volVectorField;
    location    "1792";
    object      U;
}
// * * * * * * * * * * * * * * * * * * * * * * * * * * * * * * * * * * * * * //

dimensions      [0 1 -1 0 0 0 0];


internalField   nonuniform List<vector> 
11121
(
(0.02076675074273998 0.001878388434655007 -9.142395225794267e-19)
(0.06238608377018988 0.005638250198672326 -4.789603971078275e-18)
(0.1043818208767431 0.009433425818625885 -1.296331043948991e-17)
(0.1470035714957488 0.01328578227157806 -2.191231820370402e-17)
(0.190366129676489 0.01720532254394521 -3.099132057697547e-17)
(0.2342930938641748 0.02117606861342526 -3.833524746681601e-17)
(0.2781867347891623 0.02514404951780018 -4.53592323865123e-17)
(0.3211027838505048 0.02902394852427995 -5.414375007608355e-17)
(0.3620822213730361 0.03272909188237718 -6.156425991884128e-17)
(0.4004939241300756 0.03620243897658453 -7.383832724428142e-17)
(0.4361333589399423 0.03942551251594271 -8.136695996646973e-17)
(0.4691816508284206 0.04241471558759217 -9.170358507551518e-17)
(0.4999989542884357 0.04520263271568398 -1.033623259501992e-16)
(0.5288644284474058 0.04781453667270685 -1.149183084989351e-16)
(0.5559704388136079 0.05026784486745354 -1.262680422762957e-16)
(0.5814989837355824 0.05257904516421585 -1.371296772716643e-16)
(0.6056261149394471 0.0547640953329447 -1.457563212486133e-16)
(0.6285166131751743 0.05683794085727457 -1.553505867894815e-16)
(0.6503202241543716 0.05881417461478632 -1.645306666051507e-16)
(0.6711719649370601 0.06070506548817143 -1.747364473059632e-16)
(0.6911924945011653 0.06252159254928598 -1.816639139432723e-16)
(0.7104890146239241 0.06427352730068031 -1.882243250976202e-16)
(0.7291564884839683 0.06596954467982857 -1.932353349308105e-16)
(0.747278958932056 0.06761734339718395 -1.964073978386118e-16)
(0.7649308388633326 0.06922376376120688 -2.002226814798271e-16)
(0.7821781010267452 0.07079489681871562 -2.049585019250095e-16)
(0.799079326190388 0.0723361807102742 -2.085052669153914e-16)
(0.8156865914848587 0.07385248302440894 -2.099073345410834e-16)
(0.8320461909273953 0.07534816810177705 -2.117825355144543e-16)
(0.8481991834093225 0.07682714891726988 -2.144286317443499e-16)
(0.8641817540954089 0.07829292207243273 -2.161417790300311e-16)
(0.8800253675094136 0.07974858372017678 -2.159130717464186e-16)
(0.8957566694900858 0.08119682176877469 -2.142409877609793e-16)
(0.9113970603394946 0.08263987640545281 -2.152555988800792e-16)
(0.9269618089458695 0.08407945552907892 -2.170882401997951e-16)
(0.9424584955435874 0.08551658262278782 -2.174558285066061e-16)
(0.957884466999285 0.08695134392840843 -2.131073669859218e-16)
(0.973222896161419 0.088382489996637 -2.164774460292109e-16)
(0.9884370548274067 0.0898068453954505 -2.14894941637356e-16)
(1.003462755849259 0.09121850967381809 -2.110191963405862e-16)
(1.018199972813338 0.09260793309405417 -2.10495567025564e-16)
(1.03250685990155 0.09396117002605382 -2.047372574421306e-16)
(1.046202810898087 0.09525996280760311 -2.043907435553143e-16)
(1.059090414953027 0.09648368972823596 -1.979745976885397e-16)
(1.071005284242403 0.0976143301293395 -1.912066381704214e-16)
(1.081892974485899 0.09864483337405386 -1.839259562093214e-16)
(1.091896457907529 0.09958854562414231 -1.76367328918978e-16)
(1.101200024261141 0.1004612155501093 -1.645495632411671e-16)
(1.10986764363232 0.1012692231998188 -1.516748935885428e-16)
(1.117920114900192 0.1020127341095011 -1.422984364186558e-16)
(1.125395569982028 0.102693691246732 -1.261163409941247e-16)
(0.02071157491081423 0.001713117846640055 -4.261170857906518e-18)
(0.06222409848717987 0.005142262578529345 -1.045266761684081e-17)
(0.1041160465012202 0.008604029629037476 -1.849563461138379e-17)
(0.1466370490332688 0.01211838380558584 -2.433476256399715e-17)
(0.1899036137080115 0.01569459787166748 -3.009437813028161e-17)
(0.233744062986016 0.0193184524069818 -3.82782135280585e-17)
(0.2775679815524747 0.02294120554660227 -4.36745207285229e-17)
(0.3204370525467707 0.026485337225436 -5.242327961644434e-17)
(0.3613923351160238 0.02987159874713995 -6.152760540786476e-17)
(0.399797111560863 0.03304736905128983 -7.092212124057245e-17)
(0.4354395387610265 0.03599514908876623 -8.168183863912467e-17)
(0.4684891746487005 0.03872898567144312 -9.070421238814388e-17)
(0.4993041887548507 0.04127851525241232 -9.830998360724517e-17)
(0.5281682589190825 0.04366722722661828 -1.088104090281313e-16)
(0.5552733604292591 0.04591102111045222 -1.18128486459796e-16)
(0.580800710867681 0.04802491566430415 -1.263554056345889e-16)
(0.6049257846721237 0.05002346320118537 -1.360174784150591e-16)
(0.6278130148144813 0.0519203101663438 -1.453353246582087e-16)
(0.6496119616644556 0.05372788093476935 -1.554964480148779e-16)
(0.6704575681047932 0.05545739948583854 -1.624281665786515e-16)
(0.6904704858191317 0.05711891714863396 -1.7049076317871e-16)
(0.7097579426724274 0.05872138488523533 -1.756854659236819e-16)
(0.7284149376571084 0.06027275313609049 -1.792334787707011e-16)
(0.7465255431228875 0.06178008029725646 -1.834954107937004e-16)
(0.7641641852862073 0.06324963982492256 -1.887466005395989e-16)
(0.7813968286211174 0.06468701929220921 -1.932746366137929e-16)
(0.7982820230765447 0.06609720870344636 -1.963060585349104e-16)
(0.8148717973078162 0.06748467587732634 -2.006072180557173e-16)
(0.8312123915696343 0.06885342900748634 -2.032702901833314e-16)
(0.8473448278275245 0.07020706591699985 -2.04422323923497e-16)
(0.8633053088327157 0.0715488091752273 -2.078384441853579e-16)
(0.8791254313639673 0.07288152565861351 -2.086865600944998e-16)
(0.8948321822624266 0.07420772769436421 -2.091137864671415e-16)
(0.910447657888521 0.07552954988312685 -2.118717560880097e-16)
(0.9259884031373319 0.07684869178062209 -2.106642604371274e-16)
(0.9414641950315151 0.07816630970747469 -2.094300512531447e-16)
(0.9568759975437059 0.07948283084071608 -2.106015264277277e-16)
(0.9722127021354224 0.08079765178796998 -2.092024988804925e-16)
(0.987446205395382 0.08210867491967688 -2.08883862236468e-16)
(1.002524527660207 0.08341164665203568 -2.085465607352456e-16)
(1.017363391103018 0.08469932106073387 -2.069042191729321e-16)
(1.031838494938106 0.08596062963895845 -2.041728566319649e-16)
(1.04578403312474 0.08718033319205502 -1.97273058132162e-16)
(1.059006822110842 0.08834002327140593 -1.911124535540768e-16)
(1.071325620201379 0.08942158523150126 -1.855521477529896e-16)
(1.08263594466368 0.09041374279090168 -1.791916174210432e-16)
(1.092985316788026 0.09132029355358923 -1.709628339858581e-16)
(1.102572875526489 0.09215725480668024 -1.593846528693805e-16)
(1.111523666401931 0.09293542609426256 -1.485428431480271e-16)
(1.119851533115525 0.09365480855169757 -1.359558992882337e-16)
(1.127587715039867 0.09431647990195377 -1.227860705372473e-16)
(1.134778987940856 0.09492316486380364 -1.069019194003827e-16)
(0.0206539199894873 0.00155116935692737 -3.079770484025727e-18)
(0.06205440793717209 0.004656193887388204 -9.256843248093319e-18)
(0.1038370170718878 0.007791141360230695 -1.549256543665904e-17)
(0.1462513435879102 0.01097410295701485 -2.222115662582931e-17)
(0.1894155959037901 0.01421360808887573 -2.934949665294456e-17)
(0.2331629274097772 0.01749710956425039 -3.741195992750042e-17)
(0.2769105456920133 0.02078092834909061 -4.579051475422197e-17)
(0.3197265602908712 0.02399516365379293 -5.660753102099252e-17)
(0.3606525179202612 0.02706789668553576 -6.705766163814285e-17)
(0.3990462372138676 0.02995093775098189 -7.891919279118169e-17)
(0.4346884328334581 0.03262783906780785 -8.676150488692513e-17)
(0.4677368895031374 0.03511047338218974 -9.447108039705374e-17)
(0.4985474850965933 0.03742558128887945 -1.019695402736117e-16)
(0.5274080998745394 0.03959481102690079 -1.105905782667527e-16)
(0.5545101377208217 0.04163255974455466 -1.18113673792875e-16)
(0.580033922195039 0.04355240229417683 -1.272501654039691e-16)
(0.6041542414762697 0.045367507115992 -1.337119686701479e-16)
(0.627035113112305 0.0470902420178459 -1.416479413175794e-16)
(0.6488259081423933 0.04873188325014139 -1.496935827019427e-16)
(0.6696615118779098 0.05030262859553467 -1.548529323407418e-16)
(0.6896626116947422 0.05181161961505352 -1.60156639651445e-16)
(0.7089365305866839 0.05326700500102836 -1.651487015668517e-16)
(0.7275783953243787 0.05467602906797656 -1.69426813847158e-16)
(0.7456724191698032 0.05604512900055077 -1.735345050737405e-16)
(0.763293167817116 0.0573800309019417 -1.788603391550792e-16)
(0.7805067333155417 0.05868583920403716 -1.837284712350652e-16)
(0.7973717751715264 0.05996711598943516 -1.8971746567096e-16)
(0.8139404124427247 0.06122794959494816 -1.926024677445725e-16)
(0.8302589617447358 0.06247201158764522 -1.961049269387629e-16)
(0.8463685204801523 0.06370260235548596 -2.007738487008789e-16)
(0.8623053910034099 0.06492268480262151 -2.025936079530742e-16)
(0.8781013364319025 0.06613490538510235 -2.059675672266593e-16)
(0.8937836457002555 0.06734160031607771 -2.062221017672138e-16)
(0.9093749628732491 0.06854478324345564 -2.067077443709981e-16)
(0.9248927981550543 0.06974610702438029 -2.069236736771306e-16)
(0.9403485754525761 0.07094678687498286 -2.068732474877236e-16)
(0.9557459793514537 0.07214746416463449 -2.054541006010145e-16)
(0.9710782472801409 0.07334797899893157 -2.042890051644097e-16)
(0.9863239587473969 0.07454701001183446 -2.060630005209837e-16)
(1.001440930742208 0.07574154034043151 -2.022044554049817e-16)
(1.0163583198496 0.07692614335337992 -2.017574614689563e-16)
(1.030968401168443 0.07809218869008154 -2.010255738822598e-16)
(1.045122106189055 0.07922728791885165 -1.951204464037234e-16)
(1.05863578304449 0.08031561695415038 -1.836973899627949e-16)
(1.071318362791729 0.08134002480801274 -1.815834702106951e-16)
(1.083024233994961 0.08228673511046686 -1.72467459018664e-16)
(1.093727164588548 0.08315247929411768 -1.644270085241059e-16)
(1.10360505920252 0.08395087910907724 -1.543020391410831e-16)
(1.112824112622907 0.08469412230576846 -1.427080601107209e-16)
(1.12141635123757 0.0853845809292034 -1.292195703723698e-16)
(1.129405652204607 0.08602255187250467 -1.129116946185196e-16)
(1.136832560727923 0.08660988318497861 -1.026134505136342e-16)
(1.143751244888176 0.08714979962548244 -8.558214062955968e-17)
(0.02058444795938312 0.00138976452288974 -5.530448911213657e-18)
(0.06185015471247966 0.004171884421020536 -1.663308422605324e-17)
(0.1035014274296923 0.006981243305746444 -2.786338323170818e-17)
(0.1457877461265807 0.009834072854820165 -4.038210209293471e-17)
(0.1888291151551905 0.01273815020485691 -5.167738474163845e-17)
(0.2324639449199983 0.01568255246591173 -6.274652717876049e-17)
(0.2761178552350471 0.01862858774248179 -7.35279772494342e-17)
(0.3188662463466211 0.02151391315935156 -8.314536472348049e-17)
(0.3597515970717288 0.0242739392738809 -9.145847722271633e-17)
(0.3981260811900095 0.02686496484342645 -9.942425811166256e-17)
(0.4337624187597071 0.0292716655306434 -1.069658145044041e-16)
(0.4668059991900373 0.03150388231129434 -1.132589676661778e-16)
(0.4976100545522508 0.03358548168390401 -1.208788826826081e-16)
(0.5264664338668333 0.03553620035308538 -1.272334199082257e-16)
(0.5535656637620223 0.03736892617240217 -1.330204639727715e-16)
(0.5790868920920419 0.03909579003101652 -1.396309029081914e-16)
(0.6032039742232966 0.0407285751389409 -1.437144432877148e-16)
(0.6260802955962856 0.04227836648654964 -1.475586043733235e-16)
(0.6478648467275971 0.04375528598145471 -1.518464349503208e-16)
(0.6686922903818091 0.04516849814465876 -1.555011167927853e-16)
(0.688683213873068 0.04652622777811577 -1.602353715404405e-16)
(0.7079449314170362 0.04783581504497029 -1.635446757748929e-16)
(0.7265726278847638 0.04910379362714163 -1.667774549548813e-16)
(0.7446506242857363 0.05033597714015195 -1.689412158027842e-16)
(0.7622536300832133 0.05153754481103354 -1.719262209927842e-16)
(0.7794479059009652 0.05271312115056304 -1.747305790971441e-16)
(0.7962922961749643 0.05386684702008541 -1.7775169971149e-16)
(0.8128391146620531 0.0550024407841397 -1.813415161431427e-16)
(0.8291348796800737 0.05612324940728625 -1.858018099569169e-16)
(0.8452208996739434 0.05723228969721738 -1.869807168319132e-16)
(0.8611337087219728 0.058332279170821 -1.897564781330863e-16)
(0.8769053468439778 0.05942565660790706 -1.938032408258696e-16)
(0.8925634699027246 0.06051459071495701 -1.95167480153567e-16)
(0.908131255462353 0.06160097435934701 -1.972367225894858e-16)
(0.9236270388308483 0.06268639910719023 -1.987355637340421e-16)
(0.9390635606324313 0.06377210081407191 -1.99673425083618e-16)
(0.9544466258749489 0.06485886008705796 -1.999446942786553e-16)
(0.9697728660203517 0.06594683271867961 -1.989469833968461e-16)
(0.9850261893078561 0.06703527482761802 -1.985127557894236e-16)
(1.000172484063369 0.06812212286047878 -1.981203789253362e-16)
(1.015152404335167 0.06920340384403706 -1.965393221985574e-16)
(1.029872973222018 0.07027251638401161 -1.910487198167753e-16)
(1.044200757140329 0.07131957465421511 -1.893562772183649e-16)
(1.057962727011301 0.07233126882414649 -1.890888871279506e-16)
(1.070964579660867 0.07329201840788524 -1.767124118572269e-16)
(1.083036419155683 0.07418739694264719 -1.636039240683076e-16)
(1.094106598219978 0.07501039267003309 -1.597671898976847e-16)
(1.104288012348031 0.07576911148031615 -1.492570234010335e-16)
(1.113763841852971 0.07647533490309255 -1.367526914730781e-16)
(1.122611061961823 0.07713504414935736 -1.268686627042642e-16)
(1.130846765827174 0.07774788455864313 -1.076598211835631e-16)
(1.138505232266907 0.07831496295513724 -8.716185367478009e-17)
(1.145635618880762 0.07883877359719152 -6.700459712920565e-17)
(1.152298361309923 0.07932286002191628 -4.85360116888048e-17)
(0.02049541839740762 0.001229289071867949 -3.888387857931076e-18)
(0.06158898876547662 0.003690586493100038 -1.128900937757935e-17)
(0.1030731053453343 0.006176454314034907 -1.897658659214665e-17)
(0.1451970003323849 0.00870129833862456 -2.479998812439881e-17)
(0.1880825563632349 0.01127214336518877 -3.250244675234987e-17)
(0.2315738871048589 0.01387963387910285 -4.135980014579014e-17)
(0.2751058301779074 0.01648995453651616 -5.236923141472773e-17)
(0.3177618968338833 0.01904820996632343 -6.298216071523659e-17)
(0.3585858374346952 0.02149709644802764 -7.18668427658851e-17)
(0.3969239035927746 0.02379743475676179 -8.301590874915732e-17)
(0.4325402209617971 0.02593509762182794 -9.317366697589955e-17)
(0.4655666495755905 0.02791802392108523 -1.016850400290697e-16)
(0.4963535651484524 0.02976725493802254 -1.102466697700988e-16)
(0.5251971973784046 0.03150059976174859 -1.179466918538712e-16)
(0.552287090591259 0.03312945729566603 -1.257146170117552e-16)
(0.5778010526327552 0.03466453458580181 -1.321781892676973e-16)
(0.6019118335055509 0.03611624577870096 -1.387564147610991e-16)
(0.624782019942773 0.03749440422163607 -1.44066533994717e-16)
(0.6465600610489708 0.03880798427898862 -1.503374162525687e-16)
(0.6673802287070189 0.04006511993164279 -1.540611614168969e-16)
(0.6873628342567749 0.04127311863902702 -1.578085817507052e-16)
(0.7066150014431852 0.04243850850371825 -1.618394124992647e-16)
(0.7252317899777359 0.04356710674499108 -1.651428645063381e-16)
(0.7432974504919713 0.04466409597714494 -1.682708362194754e-16)
(0.7608866712013403 0.0457341003580263 -1.712821996015693e-16)
(0.7780657385146599 0.04678125649871658 -1.746800243016359e-16)
(0.7948935695478931 0.04780927687238731 -1.770908553196772e-16)
(0.8114225974069941 0.04882150456034226 -1.790193299402334e-16)
(0.8276995070295285 0.04982095897334088 -1.801738452083971e-16)
(0.8437658216168031 0.05081037271970056 -1.823532177796195e-16)
(0.859658342359148 0.0517922196270966 -1.856015909461991e-16)
(0.8754094398411373 0.05276873367666353 -1.874332678922084e-16)
(0.8910471880626912 0.05374191821145951 -1.89955425021628e-16)
(0.9065953179470756 0.05471354371043498 -1.925709689027271e-16)
(0.9220729398975889 0.05568513059611641 -1.943508840644795e-16)
(0.9374939412658521 0.05665791027628542 -1.955805503321343e-16)
(0.9528658939500572 0.0576327526595243 -1.994161737094576e-16)
(0.9681882052868888 0.05861004049953771 -1.959880690969165e-16)
(0.9834491266629344 0.05958946179202877 -1.95825737371036e-16)
(0.9986211521995045 0.06056968318439927 -1.947103166691561e-16)
(1.013654450982905 0.06154787165272183 -1.917108063495085e-16)
(1.02846861185489 0.06251906912452014 -1.878553983667589e-16)
(1.042944669149711 0.06347553150768923 -1.832556190019704e-16)
(1.056922552301552 0.06440635383331528 -1.829699229107527e-16)
(1.070212967530233 0.0652980063761238 -1.701687924833796e-16)
(1.082633513224241 0.0661366655555289 -1.677058956851758e-16)
(1.094070866393081 0.06691301659922318 -1.528582278083369e-16)
(1.104556493619064 0.06762880001081459 -1.47672313181763e-16)
(1.114284888057619 0.06829565116829653 -1.31106063199756e-16)
(1.123383779048442 0.06892191391552366 -1.181477465990959e-16)
(1.131864153512125 0.0695072288585078 -1.04146432052613e-16)
(1.139754285143609 0.07005207625064772 -8.609504034689813e-17)
(1.147098300942691 0.07055826687776928 -6.676487386880425e-17)
(1.153952943605753 0.07102868891215486 -4.782050521013794e-17)
(1.160383680361974 0.07146703207251143 -1.413608825829334e-17)
(1.166460802927738 0.071877543336202 -2.929803773788351e-18)
(1.17225600875931 0.07226480739453361 3.796172941819356e-17)
(1.177839712644765 0.07263356302141008 7.26658968841229e-17)
(1.183279115333302 0.07298856326824874 1.040847572939658e-16)
(1.188636911138253 0.07333447453286132 1.667066365462041e-16)
(1.193970462287061 0.07367580216904467 2.114769598767999e-16)
(1.199331287368573 0.07401682984412976 2.687826852083823e-16)
(1.204764774332971 0.07436156390276794 3.385321043451749e-16)
(1.210310103204229 0.07471368034699903 4.087977246223831e-16)
(1.216000421094781 0.07507647894603636 5.031301078004519e-16)
(1.221863328119968 0.07545285427690332 5.615487863580512e-16)
(0.02040625068929371 0.001073990721387849 -2.898184522024698e-18)
(0.06132539344979226 0.003224460342249534 -9.809741162647644e-18)
(0.1026380195645571 0.005396708763064049 -1.569354411621976e-17)
(0.1445931022640425 0.007603345573623625 -2.16821617622202e-17)
(0.1873144217035356 0.009850629490213276 -2.78095601843553e-17)
(0.2306519262928897 0.012130663466201 -3.407149616411878e-17)
(0.2740500304402381 0.01441428664246217 -4.157137521130982e-17)
(0.3166009426554351 0.01665379190111469 -5.123759607472765e-17)
(0.3573502884514602 0.01879899646430443 -6.049715558212529e-17)
(0.3956387733346506 0.02081523032269905 -7.022185809224977e-17)
(0.4312220441102603 0.02268965296986758 -7.922065897935393e-17)
(0.4642178585093203 0.02442849408469608 -8.749304523636012e-17)
(0.4949736924434638 0.02605007192643831 -9.450114079020848e-17)
(0.5237906748406607 0.02757028234822215 -1.016144894310868e-16)
(0.5508575792812098 0.028999095737726 -1.072934453854364e-16)
(0.5763510497288002 0.03034585714120185 -1.136494265424279e-16)
(0.600442892260276 0.03161966813810341 -1.205542754728819e-16)
(0.6232950539193043 0.03282912069380093 -1.262156176386639e-16)
(0.6450555980816309 0.03398208564216439 -1.318077068624082e-16)
(0.6658585423326489 0.03508570481208569 -1.368791625650385e-16)
(0.6858240312417402 0.036146400971219 -1.414683902010923e-16)
(0.7050590725745356 0.03716991729052482 -1.466696101194501e-16)
(0.7236586367975333 0.03816137609675465 -1.514077442559432e-16)
(0.7417068984725359 0.03912534534522896 -1.557110054819946e-16)
(0.759278477330475 0.04006590521713019 -1.596040379553538e-16)
(0.7764395990808495 0.04098671081589439 -1.640660971439149e-16)
(0.7932491323207463 0.04189104836908236 -1.688319028441365e-16)
(0.8097594818376221 0.04278188356394923 -1.716669509611366e-16)
(0.8260173373998637 0.04366190234569482 -1.755160090781238e-16)
(0.8420642789009468 0.04453354409429712 -1.784361917997443e-16)
(0.8579372373789137 0.04539902782726579 -1.813518978864486e-16)
(0.8736688068114327 0.04626037083527412 -1.843933305442663e-16)
(0.8892873995822447 0.04711939888280793 -1.846389472965551e-16)
(0.9048172312989067 0.04797774657240665 -1.86503534439789e-16)
(0.9202781007576959 0.04883684549098548 -1.879295977800809e-16)
(0.9356848930130581 0.04969789589719971 -1.888653532300518e-16)
(0.9510466706998818 0.05056181320565212 -1.892450218289123e-16)
(0.9663651227532793 0.05142913464133357 -1.889782806951911e-16)
(0.9816320170474874 0.05229986272205997 -1.885688242876881e-16)
(0.9968251976186335 0.05317321372452181 -1.866172764811968e-16)
(1.011902702038712 0.05404723729003134 -1.835464374519259e-16)
(1.026795026897978 0.0549182940782385 -1.792274687777639e-16)
(1.041396876147853 0.0557804506722536 -1.735198082937921e-16)
(1.055562277054398 0.05662500849268241 -1.730677382122613e-16)
(1.06911035558263 0.05744062778900202 -1.61606385356699e-16)
(1.081851072340617 0.05821474614100058 -1.544272213089349e-16)
(1.093636966274727 0.05893697363587684 -1.459669585060761e-16)
(1.104437427283649 0.05960446212842178 -1.413951242365036e-16)
(1.114425525516197 0.06022696079600651 -1.253702776372909e-16)
(1.123763767579144 0.06081313755209847 -1.128272246170468e-16)
(1.132481054099679 0.06136456873080202 -9.789758766349659e-17)
(1.140598688643355 0.06188116177345084 -8.086922106314797e-17)
(1.148154980363965 0.06236408458129618 -6.215504813750299e-17)
(1.155202343256828 0.06281561936509401 -3.098022545878233e-17)
(1.161803470601291 0.06323889992950307 -1.556151905170931e-17)
(1.168027317558358 0.06363767968192154 1.504940327977593e-17)
(1.173945439457404 0.06401612684569014 5.505309351053841e-17)
(1.179629013141971 0.06437864680616082 7.963559089760071e-17)
(1.185146634108313 0.0647297414815883 1.190170586347653e-16)
(1.19056280929752 0.06507390560328882 1.550298452633797e-16)
(1.195936982231862 0.06541555055970072 2.13182107336641e-16)
(1.201322925298572 0.06575894369730169 2.691747878305766e-16)
(1.206768385823093 0.06610815357171342 3.294724414815628e-16)
(1.212314945534849 0.06646699698938056 4.042233136009633e-16)
(1.217998115983224 0.06683899018544356 4.818875848835889e-16)
(1.223847718523746 0.06722731215915893 5.72423705271705e-16)
(1.229888564834348 0.06763479111773775 6.596396364607808e-16)
(0.0203323676175897 0.0009227854263111952 -4.669234407040756e-18)
(0.06110445825172661 0.002770189788670266 -1.348001663116621e-17)
(0.10226990216266 0.004636540725047285 -2.195323324963983e-17)
(0.1440774676412113 0.006532642841987638 -3.151296735697342e-17)
(0.1866527763303444 0.008463945425024325 -3.973851400854434e-17)
(0.2298514805651374 0.01042389855697002 -4.753299184689639e-17)
(0.2731275521579363 0.01238779959499735 -5.601920059003101e-17)
(0.3155822336761862 0.01431492577421635 -6.446203992737445e-17)
(0.3562636752693388 0.01616211952275273 -7.277657523149616e-17)
(0.3945076487386394 0.01789925888830647 -8.019918063591335e-17)
(0.4300616617534819 0.01951490114129616 -8.722631610077069e-17)
(0.4630300276468989 0.02101380901528484 -9.386000375289761e-17)
(0.49375706353408 0.02241163909860278 -9.986527489601642e-17)
(0.5225480097622105 0.02372229138140496 -1.055863503603361e-16)
(0.5495907359588774 0.02495432666984093 -1.11054434145947e-16)
(0.5750607352858551 0.02611575862020442 -1.167965026426e-16)
(0.5991289442655314 0.02721440656357944 -1.220790661995812e-16)
(0.6219567959788406 0.02825766889951534 -1.266616188297136e-16)
(0.6436921420564971 0.02925233830448907 -1.313542852411623e-16)
(0.6644689600811357 0.03020458954807749 -1.356452483027166e-16)
(0.6844074755233016 0.03111998585215661 -1.395177654966741e-16)
(0.7036148461680958 0.03200351100321568 -1.431332162666256e-16)
(0.7221862153007067 0.0328596184839746 -1.466158599976101e-16)
(0.740205912055823 0.03369228761634479 -1.496415207757041e-16)
(0.7577486647508289 0.03450507888843888 -1.545167036208841e-16)
(0.7748807636939541 0.03530118154292713 -1.566708030350176e-16)
(0.7916611545543243 0.03608345091081689 -1.611466843492844e-16)
(0.8081424393971728 0.03685447832298315 -1.636291654503579e-16)
(0.8243716271146806 0.03761662568447384 -1.668431895635457e-16)
(0.840390598584394 0.03837206983944482 -1.697170371286094e-16)
(0.8562364535640958 0.03912280698056834 -1.725792697129501e-16)
(0.8719418549441035 0.03987065477400872 -1.75429867607617e-16)
(0.8875353052761634 0.04061725341775059 -1.773354552016463e-16)
(0.9030412481873346 0.04136408237556386 -1.785329687802247e-16)
(0.9184799401573365 0.04211246127089718 -1.801955648156923e-16)
(0.9338670404370305 0.04286353198704125 -1.812812263393991e-16)
(0.9492128253954797 0.04361821902016034 -1.816438952740596e-16)
(0.9645208485324156 0.04437715887787907 -1.840563647052366e-16)
(0.979785746663511 0.04514058160406485 -1.801504146968365e-16)
(0.994989774107982 0.04590811860069469 -1.779055052489389e-16)
(1.01009761547746 0.04667850572243735 -1.773622672188368e-16)
(1.025049283533918 0.0474491593339231 -1.712356933021672e-16)
(1.039751799377177 0.04821564779333069 -1.667825659696787e-16)
(1.054072336952784 0.04897119084474395 -1.610977640621237e-16)
(1.067838834762218 0.04970651311113411 -1.606582153757856e-16)
(1.080857825902559 0.05041061611393577 -1.479548710571773e-16)
(1.092959914798225 0.05107318759597144 -1.402374194132109e-16)
(1.104075294526989 0.05168912693805832 -1.311024216317753e-16)
(1.11432553571505 0.05226456393818987 -1.193613017133236e-16)
(1.123887804104962 0.05280742459082688 -1.052349430864082e-16)
(1.132827047822319 0.05332140298722029 -9.184373745677772e-17)
(1.141159107968656 0.05380606287036928 -7.476884651871716e-17)
(1.148916892569755 0.05426213564836342 -6.478990537947792e-17)
(1.156148372796029 0.05469140711584392 -3.131923546408844e-17)
(1.162913131608885 0.05509650322433721 -1.336824656180978e-17)
(1.169278407615835 0.05548070148014725 2.047990909579398e-17)
(1.175315279723108 0.05584775674402351 5.07944826094795e-17)
(1.181095428808519 0.05620173863612787 8.368063996548501e-17)
(1.186688660111377 0.05654689590409039 1.216974357642839e-16)
(1.192161162853687 0.05688755327131777 1.671775251967904e-16)
(1.197574365066492 0.0572280347843931 2.029534357242447e-16)
(1.202984212797839 0.05757260293061436 2.739434649864614e-16)
(1.20844073954765 0.05792540362506614 3.192338513497251e-16)
(1.213987860201448 0.05829041153651286 3.905347680312223e-16)
(1.219663390586377 0.05867137616975009 4.83206570689854e-16)
(1.225499329139658 0.05907177514813423 5.617711056570988e-16)
(1.231522416284667 0.05949478509590962 6.650975008665315e-16)
(1.237754889232012 0.05994328045239416 7.364167642305218e-16)
(0.02022769671016623 0.0007658155089931512 -3.966523297749676e-18)
(0.06079668685277263 0.002299407371283599 -1.250676196652038e-17)
(0.1017640754334633 0.003849203604597205 -2.057444601740528e-17)
(0.1433781845558171 0.005424202500823358 -2.929922898135119e-17)
(0.1857665178887693 0.007029021649831407 -3.759910812432502e-17)
(0.2287909058764148 0.008658437420027853 -4.592038339243435e-17)
(0.2719157409306635 0.01029224357050118 -5.485203586444926e-17)
(0.3142521076771953 0.01189684113978592 -6.359054093616739e-17)
(0.3548508194425177 0.01343632173079631 -7.136190739860525e-17)
(0.3930420168043037 0.01488533795537238 -7.863403276043924e-17)
(0.4285639183198733 0.01623399120771629 -8.586774472305791e-17)
(0.4615066254524581 0.01748572393064958 -9.30174722868801e-17)
(0.4922106247621827 0.01865346675902112 -1.00249364185732e-16)
(0.520984381483439 0.01974895617933825 -1.066181482341606e-16)
(0.5480140345227729 0.02077927587399753 -1.122237108111535e-16)
(0.5734731686378939 0.02175105194107711 -1.179370102212735e-16)
(0.5975311678098996 0.02267076507988685 -1.224264716248856e-16)
(0.6203483309295618 0.02354456298062118 -1.276848409496786e-16)
(0.6420717243565177 0.02437810374283844 -1.319544197961538e-16)
(0.6628347566057093 0.02517654123324722 -1.363873770116897e-16)
(0.6827572427426033 0.02594452882712421 -1.403106703214835e-16)
(0.7019460340215885 0.02668624486739154 -1.433543945824205e-16)
(0.7204960645669709 0.02740543403288644 -1.474905979273625e-16)
(0.7384916761984985 0.0281054587676601 -1.50025061483039e-16)
(0.7560082462222364 0.02878935856766636 -1.537210569170357e-16)
(0.7731143097278559 0.02945991960217545 -1.566142360665787e-16)
(0.7898744358761332 0.03011978295624235 -1.59477838809743e-16)
(0.8063408468854766 0.03077114117470685 -1.618415247191757e-16)
(0.8225522317677475 0.03141569770449324 -1.655545299444948e-16)
(0.8385461966678841 0.03205518948830809 -1.665413591160989e-16)
(0.8543626346865586 0.03269148425707472 -1.684856046097434e-16)
(0.870038503589767 0.03332637768117792 -1.702681788324504e-16)
(0.8856041931099506 0.03396141718831559 -1.718251333361558e-16)
(0.9010848125307341 0.03459796559406529 -1.731345030754778e-16)
(0.916500866781242 0.035237238293233 -1.738758352432782e-16)
(0.9318683494463651 0.03588031124046872 -1.746454515311386e-16)
(0.9471982722038815 0.03652810224937844 -1.749306084798316e-16)
(0.9624955747069954 0.03718132289396361 -1.745592903982011e-16)
(0.9777572317451134 0.03784039097627315 -1.727854154376087e-16)
(0.9929692246239472 0.03850528546827416 -1.714386829243953e-16)
(1.00810192962788 0.03917531823439308 -1.691769377419162e-16)
(1.023103550739167 0.03984879753455985 -1.629470199606471e-16)
(1.037891810823835 0.04052258168807518 -1.622329913014101e-16)
(1.052345770748764 0.04119159302025144 -1.57244012019124e-16)
(1.066302948908053 0.04184850723478774 -1.509991162068251e-16)
(1.079571412221977 0.04248406239240848 -1.443434854781568e-16)
(1.091968576001299 0.04308869821594108 -1.365675853056628e-16)
(1.103391141616574 0.04365625141911917 -1.272286060126243e-16)