/*--------------------------------*- C++ -*----------------------------------*\
| =========                 |                                                 |
| \\      /  F ield         | OpenFOAM: The Open Source CFD Toolbox           |
|  \\    /   O peration     | Version:  v1812                                 |
|   \\  /    A nd           | Web:      www.OpenFOAM.com                      |
|    \\/     M anipulation  |                                                 |
\*---------------------------------------------------------------------------*/
FoamFile
{
    version     2.0;
    format      ascii;
    class       volScalarField;
    location    "1000";
    object      k;
}
// * * * * * * * * * * * * * * * * * * * * * * * * * * * * * * * * * * * * * //

dimensions      [0 2 -2 0 0 0 0];


internalField   nonuniform List<scalar> 
10947
(
1.209957955220585e-07
3.361422104208746e-06
2.216751319512905e-05
7.786143537201907e-05
0.0001971360499795626
0.0004070085094413415
0.0007241808297061751
0.001142125759044069
0.001628161184088918
0.002136826318509609
0.002628300560699075
0.003079512106397286
0.003482595070475602
0.003832508782623897
0.004128356139948174
0.004372095316379915
0.004567294317553186
0.004718212363065484
0.004829322001098736
0.004904773829775435
0.004948347948912195
0.004963403147075371
0.004952870507668593
0.004919293561108269
0.004864883708307929
0.004791548469636612
0.004700950153751102
0.004594544258228562
0.004473623255253373
0.004339355846513574
0.004192818422221888
0.004035019290683229
0.00386691833082036
0.003689450078471847
0.003503568017422226
0.003310338800300207
0.003111111634461021
0.002907731081960083
0.002702593938411003
0.002498080765185538
0.002294709930394818
0.002093228928779069
0.001895091178008833
0.00170158999178335
0.001513875742095004
0.001333064302941726
0.001160277824867061
0.0009966290561848666
0.0008431857054169975
0.0007009671314020349
0.000570992584492373
0.0004543007245760586
0.0003518425239338535
0.000264272150020459
0.0001917446353655142
0.000133790574401576
8.929628015987763e-05
5.661137954004528e-05
3.3767926957895e-05
1.873301061037347e-05
9.576065707004053e-06
4.514628253507886e-06
1.993258562582748e-06
8.50292328014616e-07
3.71973769069389e-07
1.854579121227958e-07
1.174528170222513e-07
9.42645100269282e-08
8.688084935016307e-08
8.468998862125287e-08
8.408566338602154e-08
8.393106627104042e-08
8.389447011730021e-08
8.388646252797543e-08
8.388483314893513e-08
8.388450927084397e-08
8.388442820639901e-08
8.388438631226265e-08
8.388434807125197e-08
8.38843079803197e-08
8.388426543669275e-08
8.388422059395938e-08
8.388417374289212e-08
8.388412522697949e-08
8.388407542987299e-08
8.388402477038912e-08
8.388397369678984e-08
8.388392267959805e-08
8.3883872202786e-08
8.388382275376628e-08
8.388377481254163e-08
8.388372884073828e-08
8.388368527139768e-08
8.388364450061805e-08
8.388360688235729e-08
8.388357272792758e-08
8.388354231187419e-08
8.388351588651049e-08
8.388349371016642e-08
8.388347609722259e-08
8.388346347470597e-08
8.388345637250162e-08
8.388345685605758e-08
8.388454926623247e-08
8.433171263647871e-08
2.132690092815627e-07
2.742344585198065e-05
0.002108119663678559
9.174066675729325e-08
2.548737973040013e-06
1.680781113825365e-05
5.909560851738131e-05
0.0001502457646025962
0.0003133159268344717
0.0005675390247901242
0.0009181678561283423
0.001348822386892624
0.001825602020524304
0.002311223882319089
0.002777146647797328
0.00320711305451243
0.003595053796226819
0.00394178384521396
0.004248680324531974
0.004518284913526727
0.004753934990957092
0.004959238765191216
0.005137699011555007
0.005292508218682267
0.005426449039391372
0.00554186297504182
0.005640658000229305
0.005724335850215265
0.005794027250271702
0.005850528979656037
0.005894339564006539
0.005925692125890061
0.005944584294845528
0.005950805676518946
0.005943963865849144
0.005923510426160539
0.005888768712670196
0.005838965783147316
0.005773270482956359
0.005690838310727159
0.005590860051535348
0.0054726059849132
0.005335455198948081
0.005178909267409527
0.005002614998580408
0.004806402604731238
0.004590329205316037
0.004354713771464551
0.004100133828325342
0.003827334547559914
0.003537012331163845
0.003229687878778761
0.002907717802287216
0.002578052458370523
0.002250767285317611
0.001936294397641252
0.001639774725894163
0.001359289726209326
0.001095132926280184
0.000851761355098598
0.0006344536462176565
0.0004484257955374836
0.0002974761993299383
0.0001828112327337067
0.0001023675485833727
5.104943018375736e-05
2.198347215759639e-05
7.998673659519209e-06
2.524517361540851e-06
7.496470574035829e-07
2.435018166557621e-07
1.11232568263225e-07
7.904876485009426e-08
7.172137413368985e-08
7.015779999673743e-08
6.984470953435216e-08
6.978564019438542e-08
6.977485873714399e-08
6.977261561535236e-08
6.977172204304728e-08
6.977096157978107e-08
6.977014203729902e-08
6.976923557728748e-08
6.976823942078307e-08
6.976715493927646e-08
6.97659848252318e-08
6.976473282166279e-08
6.976340378990652e-08
6.976200381534728e-08
6.976054031258766e-08
6.975902212060132e-08
6.975745958266985e-08
6.97558646065689e-08
6.975425070235291e-08
6.975263299771997e-08
6.975102823600394e-08
6.974945476978483e-08
6.974793257443498e-08
6.974648332403002e-08
6.974513059821782e-08
6.974390032599671e-08
6.974282162723583e-08
6.974192833615836e-08
6.974126181339464e-08
6.974087603282279e-08
6.974086235416477e-08
6.97530375517091e-08
7.305969795269247e-08
7.247331472758059e-07
9.101235588603824e-05
0.004831376423817874
7.431668198544075e-08
2.064670435234224e-06
1.361635235297887e-05
4.789032993733357e-05
0.0001218935042944147
0.0002548994479230196
0.0004642597938083126
0.0007576711072201722
0.00112583086240345
0.001543010715150412
0.001977031388658745
0.002400473672461488
0.002795848533065945
0.003155182041696887
0.003477554372824431
0.003763608934045114
0.004015159857398422
0.004235077453781555
0.004426801405547665
0.004593959675243653
0.004740099317937448
0.004868446049068234
0.004981715750474486
0.005081690136792782
0.005169872652161319
0.005247514086445811
0.005315638341567833
0.005375066109926596
0.005426435452599884
0.005470219265994924
0.005506739959108423
0.005536181900665536
0.005558602351917174
0.005573941744153067
0.005582034333575845
0.005582620506989882
0.00557536236533798
0.005559864747779247
0.005535704682032942
0.005502331322878652
0.005458699580349754
0.005403364152138723
0.005334351665685222
0.005249440211022661
0.005146329407283353
0.005022740940376812
0.00487648376810364
0.004705518949168648
0.004508068681873091
0.004282824837807207
0.004029244329739483
0.003747726728433992
0.003439324200625571
0.003105109593159081
0.002749592535778838
0.002383658256827346
0.002020622206052919
0.001673674045745326
0.001346760411065535
0.001039922760374573
0.0007596346384119791
0.0005168013705496197
0.0003211819534195632
0.0001780055290892599
8.526898782377198e-05
3.377837286288811e-05
1.056843463547564e-05
2.668711934452115e-06
6.175989308936267e-07
1.686685711468755e-07
7.983728127189557e-08
6.358154438062151e-08
6.081343667061029e-08
6.037319629874111e-08
6.030719275228399e-08
6.029733988069979e-08
6.029532035822532e-08
6.029426139454614e-08
6.02932428144405e-08
6.029214711482731e-08
6.02909590652298e-08
6.028967619607538e-08
6.028829812089999e-08
6.028682545479222e-08
6.028525984843892e-08
6.028360416119138e-08
6.028186266489218e-08
6.028004126799402e-08
6.027814775771773e-08
6.02761920586781e-08
6.027418650774691e-08
6.02721461436717e-08
6.027008902068404e-08
6.026803654385543e-08
6.026601385777835e-08
6.026405031102953e-08
6.026218005999236e-08
6.026044290715871e-08
6.025888550589708e-08
6.025756307792528e-08
6.025654217074159e-08
6.02559061563777e-08
6.025587422526052e-08
6.029749308632335e-08
7.006080142529257e-08
1.746507111315649e-06
0.0001895116490384598
0.007999281089221197
6.591953943145092e-08
1.831383355832063e-06
1.207824901729567e-05
4.248898856283752e-05
0.0001082161855774572
0.0002266587613984297
0.0004141129355843383
0.0006792238608369771
0.001016021191159687
0.001403020117892126
0.001811023616408693
0.002213520858042969
0.002592502222930242
0.00293894615983186
0.003250899724243904
0.003528556404077176
0.003773149794795258
0.003987036914330186
0.004173233697183771
0.00433502808533979
0.004475721854331062
0.004598428917195474
0.004705921782437767
0.004800359542478644
0.004883261091184413
0.004955929197058829
0.005019472867565591
0.005074829306112977
0.005122783786162115
0.005163986800395379
0.005198968334280378
0.005228149340910805
0.005251850592653929
0.00527029910643539
0.00528363231982709
0.005291900152117631
0.005295065025149909
0.005292999841331116
0.005285483810890621
0.005272195866165118
0.005252706273878789
0.005226470835491032
0.00519283272057152
0.005151037170772289
0.005100262173917638
0.005039671529199547
0.004967613215166297
0.004881910794213902
0.00477970301219002
0.004657811261114051
0.00451298823318204
0.004342079721976515
0.004142140719504642
0.00391057932184761
0.003645418807130184
0.003345590428229022
0.003010980785445729
0.002646513497907402
0.002266352067662159
0.001886635514946856
0.001521348062977609
0.001176899484188538
0.0008569478214718476
0.0005732918232241088
0.0003425150055423491
0.000176232805485114
7.447140083192855e-05
2.425268243473866e-05
5.855256257316889e-06
1.151259105359368e-06
2.358815610834252e-07
8.132757443887493e-08
5.745921793328869e-08
5.404791733234223e-08
5.35947654719186e-08
5.35380217197627e-08
5.353056112709377e-08
5.352873732716335e-08
5.352744022094322e-08
5.352610919727134e-08
5.352468555415648e-08
5.352316311408134e-08
5.352154157031191e-08
5.351982204551124e-08
5.351800682778643e-08
5.351609951206588e-08
5.351410519083107e-08
5.351203066414406e-08
5.350988466666027e-08
5.350767811334594e-08
5.350542436758199e-08
5.350313953652555e-08
5.350084280893575e-08
5.349855684423204e-08
5.34963082510205e-08
5.349412818895748e-08
5.349205316384266e-08
5.349012612750667e-08
5.34883980663771e-08
5.348693017263889e-08
5.348579586220134e-08
5.348508861024944e-08
5.348530970487231e-08
5.359746355432392e-08
7.653337956279855e-08
3.573450711588212e-06
0.0003258007022168391
0.01154103792025519
6.082281129980804e-08
1.689787191821068e-06
1.114464192480787e-05
3.920966890400416e-05
9.990565347829506e-05
0.0002094660396655709
0.0003834712226199373
0.0006310233226807963
0.0009481071890136005
0.001315913598040483
0.001707283391892415
0.002096456910128102
0.002465196244971697
0.002803814013771477
0.003109585102241258
0.003382549566815961
0.003623603797652319
0.00383479068991228
0.004018864623725511
0.004178900876888963
0.004318031254995689
0.00443926509286915
0.00454530029587254
0.004638428481166233
0.004720140500822353
0.0047917219493432
0.004854273813067657
0.004908733616687803
0.004955895189915959
0.004996426214683825
0.00503088331414144
0.005059724702349049
0.005083320541580512
0.00510196119843519
0.005115863592189357
0.005125175811796773
0.005129980155051217
0.005130294722936986
0.00512607369058513
0.005117206380145276
0.00510351518724747
0.00508475200356622
0.005060592512233559
0.005030628156182771
0.004994355772605632
0.004951164470070507
0.004900318659992921
0.004840950311474823
0.00477207595518096
0.004692458479493782
0.004599909408263708
0.004491523645109382
0.00436371246217006
0.004212563782043889
0.004034092047694677
0.00382439163140484
0.00357975872384081
0.003296988546663308
0.002973977512129422
0.002612185696972488
0.002226017603951353
0.001835996305033339
0.001456802475079569
0.001098366067766723
0.000767218114792802
0.000478971697055878
0.0002558404763122833
0.0001104875026723161
3.58183597495019e-05
8.165536782182961e-06
1.411485567072542e-06
2.438159894359221e-07
7.40172621238759e-08
5.156031556267899e-08
4.881598600165718e-08
4.850443528274907e-08
4.847068152058914e-08
4.846626124809623e-08
4.846463823589228e-08
4.846317919547204e-08
4.846163936041846e-08
4.845999676107846e-08
4.845824961521854e-08
4.845639875892309e-08
4.84544463742674e-08
4.845239608151471e-08
4.845025315340518e-08
4.844802475476268e-08
4.84457201995471e-08
4.844335122552717e-08
4.844093228900367e-08
4.843848088377691e-08
4.843601789824845e-08
4.843356802196154e-08
4.843116024073796e-08
4.842882846216313e-08
4.842661234496457e-08
4.84245584443094e-08
4.842272193814406e-08
4.842116933787353e-08
4.841998045281118e-08
4.84192544114251e-08
4.842004988829142e-08
4.866653004278892e-08
9.426506087519089e-08
6.426653558666217e-06
0.0004984824852711335
0.01537250538275405
5.729591677126267e-08
1.591803646104895e-06
1.049857142226491e-05
3.69399009898823e-05
9.414995386496447e-05
0.0001975406425945503
0.0003621552656552132
0.0005973415392840257
0.0009003828292221986
0.001254349670088084
0.001633598835858634
0.002012996598703905
0.002374201449220463
0.002707063712008765
0.003008283767732571
0.003277812022315887
0.003516308937372076
0.00372559730139188
0.003908252318060633
0.004067209911914521
0.004205495723786526
0.004326050526274015
0.004431528497945005
0.004524258012343964
0.004605716725711547
0.004677180697332562
0.00473974546186024
0.004794346457607237
0.004841778436521916
0.004882712914406182
0.004917713378335764
0.004947248242241289
0.004971701684657724
0.004991382556060252
0.00500653155002018
0.005017326815648791
0.005023888161145764
0.005026279966289878
0.005024512888746766
0.005018544416532424
0.005008278287120841
0.004993562763764133
0.004974187740336191
0.004949880650964866
0.004920301198355921
0.004885035001359708
0.00484358643818162
0.004795370069835175
0.00473969864523526
0.004675766414828007
0.004602631768935918
0.00451922693354735
0.004423679899736262
0.004313243282246935
0.004184354666951374
0.004032864063765276
0.003854258372189424
0.003643794976785413
0.003396640758637617
0.00310827267232355
0.002775607874671001
0.002402193209638697
0.00200689517233223
0.001611656993830692
0.001232783259713152
0.0008769236837600937
0.0005565748412554353
0.000298783046442128
0.000126554400479748
3.871117377336546e-05
7.931338913819459e-06
1.195634526659626e-06
1.871301755835249e-07
6.066559101713432e-08
4.622547212103566e-08
4.470156039190085e-08
4.455166680002717e-08
4.453692026825486e-08
4.453440647497829e-08
4.453283395048965e-08
4.453123894894276e-08
4.452954407459876e-08
4.452774342056446e-08
4.452583737674588e-08
4.452382792963941e-08
4.452171853216855e-08
4.451951431466111e-08
4.451722233817682e-08
4.45148518705792e-08
4.451241468536021e-08
4.450992538647084e-08
4.450740176383428e-08
4.450486519330522e-08
4.450234109303438e-08
4.449985947351168e-08
4.44974556257437e-08
4.449517102243072e-08
4.449305450924873e-08
4.449116399349903e-08
4.448956956977764e-08
4.44883567418906e-08
4.448763049367869e-08
4.448936948617273e-08
4.494766732725971e-08
1.24254720491106e-07
1.044517720808693e-05
0.0007059230810759042
0.01947979940087659
5.467494170665441e-08
1.518988111131918e-06
1.001843889942942e-05
3.525287090920352e-05
8.986999795115227e-05
0.0001886629434412209
0.0003462525309583465
0.0005721281882603327
0.0008645036567354076
0.001207857188657324
0.001577730293454129
0.001949517460152248
0.002304835005829861
0.002633191801044636
0.002930842712132131
0.003197674283451106
0.003434166616070372
0.003641973608593159
0.003823533705481879
0.003981677501261444
0.004119351703656723
0.004239440565304876
0.004344568948779657
0.00443704800272177
0.004518385118285402
0.004589849927019744
0.004652534935125532
0.004707375237540461
0.004755167485987072
0.004796587081754351
0.004832203265210567
0.004862492063101571
0.004887847211214931
0.004908589232712694
0.004924972866016
0.004937193024536178
0.00494538944708679
0.004949650169461352
0.004950013918105027
0.00494647149785532
0.004938966218223926
0.004927393377103119
0.004911598797060766
0.004891376387607555
0.004866464688171847
0.004836542332649047
0.004801222368889635
0.004760045366521848
0.004712471300909336
0.004657870423314956
0.004595513422101835
0.004524559522640806
0.004444038887591382
0.004352835363733458
0.004248788860423914
0.00412891098348372
0.003989368147677008
0.003825695466112169
0.00363288829839158
0.003405438265069143
0.003137549061962362
0.002824113956292239
0.002463134890343549
0.00206937763596888
0.001668441612375283
0.00127783224707028
0.000907832696786156
0.0005717647981835205
0.0002985787698707914
0.0001186489809988602
3.228942099591461e-05
5.632253999305305e-06
7.377778944304707e-07
1.163240062861885e-07
4.878743169692982e-08
4.207005701266564e-08
4.14518079011104e-08
4.139804432862617e-08
4.139250781170302e-08
4.139069909870595e-08
4.138906751035053e-08
4.13873494574131e-08
4.138552658603379e-08
4.138359846783932e-08
4.138156699643055e-08
4.137943557956938e-08
4.137720931308853e-08
4.137489523502034e-08
4.137250260532197e-08
4.137004321013718e-08
4.136753169415281e-08
4.1364985927069e-08
4.136242741854566e-08
4.135988179566256e-08
4.135737937931015e-08
4.135495590633109e-08
4.1352653487404e-08
4.135052187312604e-08
4.134862001498072e-08
4.134701906615793e-08
4.134580807699801e-08
4.13451017447361e-08
4.134825208528094e-08
4.210931306398379e-08
1.67938011631686e-07
1.581091827858468e-05
0.000949936318592356
0.02390651431932332
5.263072206747159e-08
1.462195860536139e-06
9.64395412340306e-06
3.393691130869102e-05
8.653024755777766e-05
0.0001817294374975125
0.0003338114841669635
0.0005523507485386132
0.0008362635440790304
0.001171130404561894
0.001533452193756859
0.00189907604473987
0.002249609158945324
0.002574296810863888
0.002869035758891995
0.003133663274734747
0.003368514857324419
0.003575108156514687
0.003755770780312098
0.003913247523142994
0.00405042104994257
0.004170129662079985
0.004274973787586289
0.004367250515457091
0.004448488998390353
0.004519953992179189
0.004582735863929166
0.00463776973681901
0.004685854097982149
0.004727667770354906
0.004763784883275937
0.004794687777088066
0.004820777943838335
0.004842385175941193
0.004859775113336781
0.004873155371977129
0.004882680416182852
0.004888455311811714
0.00489053847009959
0.004888943465315087
0.004883639983730589
0.004874553937097491
0.004861566750818669
0.004844513815386601
0.004823182069826066
0.004797306668893041
0.004766566673976619
0.004730579705601514
0.004688895508490043
0.004640988415367898
0.004586248768365432
0.004523973510488444
0.004453356600563146
0.004373478852436589
0.004283294247613263
0.004181011470949481
0.004063960299672667
0.003928605717699476
0.00377064051231632
0.00358502170446724
0.00336592250528022
0.003106832192299588
0.002801431548276652
0.002446460690464264
0.002053967978515598
0.001649331765070609
0.001253065498557396
0.0008763784749016319
0.0005346122585294449
0.0002618378656013844
9.263427374871632e-05
2.100643932775333e-05
2.992684530842363e-06
3.521705171430431e-07
6.834213558635703e-08
4.138186052259404e-08
3.902664325468084e-08
3.883548064557947e-08
3.881990991232464e-08
3.881741835075504e-08
3.881573813730369e-08
3.881401191592808e-08
3.881218397042388e-08
3.881025166685485e-08
3.880821674570872e-08
3.880608257363766e-08
3.880385421367901e-08
3.880153867607891e-08
3.87991452002094e-08
3.879668556175057e-08
3.879417440864024e-08
3.879162963200531e-08
3.878907278656534e-08
3.878652957590667e-08
3.87840304379727e-08
3.878161127370544e-08
3.877931442165125e-08
3.877719002002241e-08
3.87752975216692e-08
3.877370784274077e-08
3.877251122911645e-08
3.877183781738178e-08
3.877693879079458e-08
3.994415491760761e-08
2.272474199347864e-07
2.276684953311441e-05
0.00123478950789044
0.02869871324080596
5.098226990708993e-08
1.416398740685012e-06
9.341966102108638e-06
3.287561712433812e-05
8.383603267473362e-05
0.0001761321711131231
0.000323754376522517
0.0005363283897136897
0.0008133209308901223
0.001141202969322264
0.00149727188746337
0.001857767567383556
0.002204306847125488
0.002525925107533203
0.002818223784873901
0.003081000348270912
0.003314470964138425
0.003520040287145767
0.003699943600640124
0.00385685400632194
0.003993600475204823
0.004112982633168045
0.004217579906951981
0.004309677278070744
0.00439082123401401
0.004462272353601264
0.004525119098389675
0.004580296481337062
0.004628604371510918
0.004670724277237458
0.00470723421101998
0.004738621549216174
0.004765293974647831
0.004787588665792528
0.004805779918796578
0.004820085383740058
0.004830671078629938
0.004837655320893158
0.004841111690801862
0.004841071116177145
0.004837523143658914
0.00483041643900948
0.004819658537241726
0.004805114842642022
0.004786606858963551
0.004763909611382353
0.004736748205008692
0.004704793451476284
0.004667656488638541
0.004624882324644405
0.004575942267968344
0.004520225278785284
0.004457028420349744
0.004385546838169043
0.004304864236748099
0.00421394257389963
0.004111032019612328
0.003993551888688628
0.003858074602492565
0.003700365828843748
0.003515341949217795
0.003296939050056854
0.00303816690086483
0.002732091819828885
0.002375082047645053
0.00197970962349152
0.00157223368687903
0.001174429218623322
0.0007963927113091179
0.0004575755245315004
0.0002009540821578396
5.93593017102851e-05
1.051108525372218e-05
1.217043358330473e-06
1.447991507648123e-07
4.566277750028657e-08
3.736038001719317e-08
3.671865341256987e-08
3.667163251648334e-08
3.666711908731203e-08
3.666532179311402e-08
3.666359319967108e-08
3.666177029945037e-08
3.665984450350459e-08
3.665781721708143e-08
3.665569175305733e-08
3.665347312749769e-08
3.665116829771394e-08
3.664878644436067e-08
3.664633927991001e-08
3.664384138665237e-08
3.664131059057379e-08
3.663876838538991e-08
3.663624042331165e-08
3.663375710852841e-08
3.663135432895191e-08
3.662907441517858e-08
3.662696758394175e-08
3.662509366337507e-08
3.662352302090672e-08
3.66223444907927e-08
3.662170829268989e-08
3.662930985241055e-08
3.83132485849184e-08
3.042625592169104e-07
3.161138905237776e-05
0.001566017060040807
0.03388128039539103
4.962024598042773e-08
1.378559118019413e-06
9.092447078380134e-06
3.199865520297684e-05
8.160923856188948e-05
0.0001715033006131663
0.0003154278802271199
0.0005230392590147324
0.0007942472908416764
0.001116259011881005
0.00146704549222666
0.001823190792948423
0.002166332202829661
0.002485334016723659
0.002775549331407052
0.00303674253419416
0.003269029251350942
0.003473718537703747
0.003652967245565277
0.003809387364741601
0.003945761905991955
0.004064857220111981
0.004169234353849679
0.004261167625197607
0.004342218105827306
0.004413642663193425
0.004476527971983
0.004531808773155926
0.004580285916319469
0.004622642977650793
0.004659461029724114
0.004691231456801147
0.004718366891509225
0.004741210429042518
0.00476004330080279
0.004775091187008361
0.004786529331593834
0.004794486600489254
0.004799048600296431
0.004800259950484152
0.004798125779325616
0.004792612492129152
0.004783647839762548
0.004771120295727955
0.004754877730950534
0.004734725356806406
0.004710422888975967
0.004681680868161264
0.004648156060280373
0.004609445851845781
0.004565081562224183
0.004514520625064186
0.004457137667450254
0.004392214676700383
0.004318930753571024
0.004236352505788474
0.004143424507379593
0.004038256390874057
0.003918192531630536
0.003779748066832917
0.003618628191627628
0.003429599334793313
0.003206286815838714
0.002941263400353621
0.002627345095780781
0.002261567146202864
0.001859975907837767
0.001450457003390968
0.001054305306012957
0.0006800077607256475
0.0003545756060794308
0.0001316950513960331
3.010727374885798e-05
3.996316511043525e-06
4.004427886777233e-07
6.426176954099848e-08
3.701470348030601e-08
3.49895715446331e-08
3.484960491103697e-08
3.483934849726232e-08
3.483723229224377e-08
3.483549659369973e-08
3.483368432060608e-08
3.483177129523007e-08
3.482975813808889e-08
3.482764809242697e-08
3.482544612546745e-08
3.482315913384612e-08
3.482079622340288e-08
3.481836901684301e-08
3.481589199143793e-08
3.481338285327435e-08
3.481086296201612e-08
3.480835782321254e-08
3.480589768716518e-08
3.480351828898292e-08
3.480126177328453e-08
3.479917813279087e-08
3.479732740411569e-08
3.479577970550484e-08
3.479461987908627e-08
3.479402009685127e-08
3.480465392073297e-08
3.712135422054652e-08
4.017033830342101e-07
4.273198204677904e-05
0.001950476822176827
0.03946209900732899
4.847135075021018e-08
1.346640602247672e-06
8.881970390686846e-06
3.125886765237058e-05
7.973038698385078e-05
0.0001675958092697977
0.0003083923435916558
0.0005117934516206922
0.0007780741638226583
0.001095062227793208
0.001441307996324788
0.001793700270467129
0.00213390300729316
0.002450638143768327
0.002739046233130965
0.00299886360029172
0.003230119643672394
0.003434041120974126
0.003612717113687574
0.003768706629637161
0.003904752667335211
0.004023592455260802
0.004127770713766538
0.004219552208760569
0.004300510632674666
0.004371899479576717
0.004434803709983785
0.004490157650931369
0.004538762807394186
0.004581304333390503
0.004618365715563301
0.004650441545741109
0.004677948447526755
0.004701234306246443
0.004720585980164675
0.004736235670472921
0.004748366112843889
0.004757114732300089
0.004762576880100927
0.00476480824841319
0.004763826536573855
0.004759612422072249
0.004752109869831119
0.004741225794710868
0.004726829074092747
0.004708748889678994
0.004686772360249747
0.004660641410333058
0.004630048804559236
0.004594633265993054
0.004553973593102843
0.004507581702052674
0.004454894562936603
0.004395265096443069
0.004327952298599995
0.004252111253750167
0.004166784419417778
0.004070739078281865
0.003961908541161925
0.003837463136717977
0.003693762159085135
0.003526314844705278
0.003329570615264987
0.003096683933192489
0.002819790297608702
0.002491988877704941
0.002112657876461584
0.001703870737437828
0.001295986145745484
0.0009017543505100106
0.0005357356936621253
0.0002406760072374843
7.008835916380832e-05
1.154169418154368e-05
1.17431882928415e-06
1.23411860773524e-07
3.971396815878692e-08
3.368890893001961e-08
3.32887887642248e-08
3.326298202762883e-08
3.326002178057262e-08
3.325825626342495e-08
3.325645693177814e-08
3.325456021469779e-08
3.325256486351804e-08
3.325047400904604e-08
3.324829256818907e-08
3.324602737373523e-08
3.324368744921515e-08
3.324128431449092e-08
3.323883232163355e-08
3.323634902770318e-08
3.323385561818756e-08
3.32313773972508e-08
3.322894438616641e-08
3.322659207758834e-08
3.322436233579662e-08
3.322230469952137e-08
3.322047912554863e-08
3.321895618545035e-08
3.321781477655579e-08
3.321724778506159e-08
3.323143671425274e-08
3.630700387072852e-08
5.238138668553853e-07
5.665423026866942e-05
0.002396640215715096
0.04543955746715742
4.74850590583063e-08
1.319239514224567e-06
8.701280897359779e-06
3.062374444893346e-05
7.811708110995312e-05
0.0001642391932612511
0.0003023437752030422
0.0005021126621451525
0.000764127837077557
0.001076749522963606
0.001419033443750894
0.001768140901640667
0.002105766031455458
0.002420510178549987
0.002707329135262551
0.002965935085818468
0.003196282358427603
0.0033995258166802
0.003577695141389426
0.003733302766810524
0.003869056394316872
0.003987667443938849
0.004091665978174789
0.004183308121405997
0.00426417858764479
0.00433552778338232
0.004398439030509191
0.004453846148365339
0.004502551059848537
0.004545240131064306
0.004582498776573032
0.004614824191599878
0.004642636266560403
0.004666286827103548
0.004686067373880824
0.004702215497569065
0.004714920131227939
0.004724325782022641
0.004730535862136539
0.004733615216523537
0.004733591923937152
0.004730458427750947
0.004724172034330274
0.004714654798881251
0.004701792801444646
0.004685434798699299
0.004665390220276264
0.004641426461334558
0.004613265406599433
0.004580579105984538
0.00454298451060622
0.004500037175018482
0.004451223845310207
0.00439595389899425
0.00433354971013855
0.004263236234867135
0.004184130546800375
0.004095232859640226
0.003995011629925779
0.003881162403047098
0.003750604681242061
0.003599450965047988
0.00342287491093456
0.003214821602915788
0.002967812904438851
0.002673614091888703
0.002326190194582495
0.001933003927777789
0.00152050827377453
0.001115605987568841
0.0007268595943358478
0.0003799069610832769
0.0001366473827673943
2.853696184225841e-05
3.296760472123605e-06
2.919724614489349e-07
5.003318874329054e-08
3.304647357837055e-08
3.195281441728194e-08
3.18867223124793e-08
3.18816249643365e-08
3.187976939068268e-08
3.187798220816019e-08
3.187610365277657e-08
3.187412808972814e-08
3.187205843604825e-08
3.186989955383367e-08
3.186765820901348e-08
3.186534333712882e-08
3.186296634603894e-08
3.186054144904618e-08
3.185808603507556e-08
3.185562108983764e-08
3.185317168261488e-08
3.185076755754532e-08
3.184844390146793e-08
3.184624226060439e-08
3.184421160019057e-08
3.184241138336723e-08
3.184091347470382e-08
3.183978995315585e-08
3.183925034457677e-08
3.185753812725085e-08
3.583741831703706e-08
6.77270287385903e-07
7.40936316988375e-05
0.002914745964862464
0.05180702459417412
4.662389121085072e-08
1.295314599914748e-06
8.543512919790636e-06
3.006916521876372e-05
7.670815723865592e-05
0.0001613067342174066
0.000297055720676073
0.0004936392477857824
0.0007519020390432934
0.001060668684723117
0.001399442407168539
0.001745631309490328
0.002080962322697852
0.002393938259464981
0.002679363764933163
0.002936892793444756
0.003166429329977564
0.003369067393016139
0.003546784244180653
0.003702050750890995
0.003837542976431746
0.003955949136977974
0.004059785966433544
0.004151301701571735
0.004232090657214093
0.004303400433249521
0.004366312820136132
0.004421761096834971
0.004470547453137024
0.004513359211011213
0.004550783358578
0.004583319244518119
0.004611389479555047
0.004635349182667189
0.0046554937428399
0.004672065269987754
0.004685257896324516
0.004695222070249696
0.004702067963306035
0.004705868089202987
0.004706659213272454
0.004704443611389067
0.004699189719239282
0.004690832195617484
0.004679271406800737
0.00466437232262814
0.004645962798369218
0.004623831199578615
0.004597723309943992
0.00456733844510124
0.004532324679774337
0.004492273084181486
0.004446710863836785
0.00439509331506844
0.004336794566309789
0.004271097209177779
0.004197181203152245
0.004114112996850026
0.004020796255903919
0.003915327687372067
0.003795092465740139
0.003656690657510524
0.003495890594084933
0.003307384760076942
0.003084448443001991
0.002818963737744146
0.002502946807732642
0.002133356575670294
0.001727623250213163
0.001315705093986699