/*--------------------------------*- C++ -*----------------------------------*\
| =========                 |                                                 |
| \\      /  F ield         | OpenFOAM: The Open Source CFD Toolbox           |
|  \\    /   O peration     | Version:  v1812                                 |
|   \\  /    A nd           | Web:      www.OpenFOAM.com                      |
|    \\/     M anipulation  |                                                 |
\*---------------------------------------------------------------------------*/
FoamFile
{
    version     2.0;
    format      ascii;
    class       volScalarField;
    location    "1000";
    object      nut;
}
// * * * * * * * * * * * * * * * * * * * * * * * * * * * * * * * * * * * * * //

dimensions      [0 2 -1 0 0 0 0];


internalField   nonuniform List<scalar> 
10947
(
1.05935532779846e-13
1.6045279149885e-11
3.028116330841192e-10
2.200019913611898e-09
9.521949503017879e-09
2.957438502707333e-08
7.224694203452575e-08
1.466217510929173e-07
2.574043328948107e-07
4.041939678052875e-07
5.784873787975098e-07
7.66204735764651e-07
9.806854788327158e-07
1.224164683819156e-06
1.497569072505126e-06
1.801699547596148e-06
2.137104735354465e-06
2.502498129624198e-06
2.899451278744271e-06
3.328503460233465e-06
3.7899022361179e-06
4.283774505988356e-06
4.810156969362256e-06
5.369016339749808e-06
5.960271239737927e-06
6.583764666410651e-06
7.239254914686513e-06
7.92637391361477e-06
8.644583045524289e-06
9.393123597522636e-06
1.017096295503376e-05
1.097678280876999e-05
1.180915990511094e-05
1.266727430214554e-05
1.355267783648154e-05
1.447252698018341e-05
1.544330568335252e-05
1.648962991131206e-05
1.762290178473936e-05
1.877010631380047e-05
1.962429476810644e-05
2.037547652167829e-05
2.096394792225328e-05
2.133602101581829e-05
2.145164051808041e-05
2.128577662533894e-05
2.082980543747841e-05
2.009210348193822e-05
1.909639514031335e-05
1.787703274365941e-05
1.647259502899029e-05
1.492119968789909e-05
1.325932075415289e-05
1.152295035633987e-05
9.749301889558742e-06
7.978255667804899e-06
6.25429550023531e-06
4.630903669870403e-06
3.176887042594406e-06
1.975049325410575e-06
1.094697525830891e-06
5.418862006526266e-07
2.452625454813869e-07
1.057642637368419e-07
4.646147654662101e-08
2.319889509814391e-08
1.469935819167009e-08
1.179908992436905e-08
1.087534272196596e-08
1.060122151036777e-08
1.05256041749917e-08
1.050625989785319e-08
1.050168144280405e-08
1.050068055721721e-08
1.050047796058747e-08
1.050043887542344e-08
1.050043032351189e-08
1.050042682234632e-08
1.050042392427459e-08
1.050042093381205e-08
1.050041776557472e-08
1.050041442614316e-08
1.05004109368444e-08
1.050040732336306e-08
1.050040361436523e-08
1.05003998411027e-08
1.05003960370016e-08
1.050039223713219e-08
1.050038847755836e-08
1.050038479459478e-08
1.050038122399855e-08
1.050037780015238e-08
1.050037455530562e-08
1.050037151895207e-08
1.050036871744346e-08
1.050036617395231e-08
1.050036390891039e-08
1.050036194109185e-08
1.050036028971701e-08
1.050035897817938e-08
1.050035803826021e-08
1.050035750941904e-08
1.050035762033407e-08
1.050049390366375e-08
1.055646226478782e-08
2.669280794320284e-08
3.32631973262286e-06
5.546093688376131e-05
8.032146469001433e-14
1.217203186810584e-11
2.301698227207335e-10
1.683389266221161e-09
7.399022013679011e-09
2.361322836444851e-08
5.996711697754954e-08
1.275339879934341e-07
2.352383559261157e-07
3.874278941441907e-07
5.844092663630128e-07
8.246269189830349e-07
1.10639758737057e-06
1.415592162291593e-06
1.765714172369527e-06
2.163089538184359e-06
2.610929613753351e-06
3.111437213762918e-06
3.666521153058295e-06
4.277646469800816e-06
4.945895769139306e-06
5.671969020213925e-06
6.456176366588103e-06
7.29843830789456e-06
8.198293934031371e-06
9.154913173722788e-06
1.01671104438811e-05
1.123335697735933e-05
1.235178971078545e-05
1.352021733334155e-05
1.473612769348926e-05
1.599670487691254e-05
1.72988659928957e-05
1.863932031490878e-05
2.0014626008664e-05
2.142116283043937e-05
2.285486481840313e-05
2.431053679150763e-05
2.578077297007576e-05
2.725504986040156e-05
2.872011930294747e-05
3.016130122024402e-05
3.156257078576989e-05
3.290531374476455e-05
3.416604766204875e-05
3.531190466748453e-05
3.629419772497496e-05
3.704654715631727e-05
3.750882230926723e-05
3.771409668567352e-05
3.787891805963393e-05
3.830393557571255e-05
3.893645488803496e-05
3.83226141585371e-05
3.562038122043834e-05
3.240137551254574e-05
2.876677495008476e-05
2.481967248780923e-05
2.067646981564159e-05
1.647608805419563e-05
1.238085391303957e-05
8.573397884748829e-06
5.263181240404215e-06
2.701806629477043e-06
1.10211409573158e-06
3.663780672740611e-07
1.106516594770123e-07
3.610360439936173e-08
1.650969819369894e-08
1.173550410599293e-08
1.064820046585641e-08
1.041618230697067e-08
1.036975100014171e-08
1.036103112079336e-08
1.035949006199463e-08
1.035922839923933e-08
1.035917931113446e-08
1.035916237636913e-08
1.035914912141783e-08
1.035913538006675e-08
1.035912061041026e-08
1.03591047797541e-08
1.035908793104984e-08
1.035907012814793e-08
1.035905145026437e-08
1.035903199212944e-08
1.03590118645663e-08
1.035899119490071e-08
1.035897012711721e-08
1.035894882175562e-08
1.035892745556911e-08
1.035890622099352e-08
1.035888532555608e-08
1.035886499142965e-08
1.035884545545804e-08
1.035882697018992e-08
1.035880980674064e-08
1.035879426055551e-08
1.035878066146435e-08
1.035876939283517e-08
1.035876093698723e-08
1.035875596019208e-08
1.035875863421181e-08
1.036051205137963e-08
1.085148006746364e-08
1.075490867193654e-07
1.216017259504767e-05
0.0001150029250524263
6.506636627040772e-14
9.860615165011632e-12
1.86517513675274e-10
1.365733026840161e-09
6.020999758854382e-09
1.933008275193806e-08
4.95611374583674e-08
1.067702911234901e-07
1.998888038379604e-07
3.341946284211174e-07
5.111217663400849e-07
7.299356605938381e-07
9.894691555630173e-07
1.278394571627345e-06
1.605896173186671e-06
1.98113884491405e-06
2.409333418458453e-06
2.894993079932778e-06
3.442265696458253e-06
4.053392278335907e-06
4.723303147934536e-06
5.438598311530732e-06
6.222300021994734e-06
7.078878591342764e-06
8.012916388631433e-06
9.029041681948464e-06
1.013184914841375e-05
1.132580907147457e-05
1.261515812182231e-05
1.400377024041852e-05
1.549500401910242e-05
1.709152208388051e-05
1.879507634568542e-05
2.060625027243011e-05
2.252414504954106e-05
2.454598989655948e-05
2.66666468757525e-05
2.887796579975243e-05
3.116792312289514e-05
3.346460840155608e-05
3.558924018480327e-05
3.760438659955909e-05
3.954805115250273e-05
4.143402109054115e-05
4.325617924817808e-05
4.499400745179561e-05
4.661787808301452e-05
4.809424618262534e-05
4.939143794088666e-05
5.048309599512871e-05
5.133944104587529e-05
5.189598686972639e-05
5.201527692071194e-05
5.152511095916283e-05
5.045368192731901e-05
4.921153273662459e-05
4.829950580015809e-05
4.748885907125067e-05
4.40130512669012e-05
3.856849693819731e-05
3.257953433381779e-05
2.627332558951225e-05
1.994168642382192e-05
1.392800685162441e-05
8.59386700110792e-06
4.340378496025734e-06
1.617937132718472e-06
4.416150568191706e-07
1.043938753473864e-07
2.863531988169105e-08
1.356489228798073e-08
1.080439571352088e-08
1.033429237051945e-08
1.025959617217989e-08
1.024848275769507e-08
1.024692080479612e-08
1.024670278921264e-08
1.024666157947255e-08
1.024664125211103e-08
1.024662218306279e-08
1.024660204809469e-08
1.024658060088069e-08
1.024655783993015e-08
1.024653380231053e-08
1.024650854346672e-08
1.024648213705515e-08
1.024645467680324e-08
1.024642627864037e-08
1.02463970829423e-08
1.024636725689904e-08
1.024633699704443e-08
1.02463065319709e-08
1.024627612540197e-08
1.024624607966683e-08
1.024621674003308e-08
1.024618850028493e-08
1.024616181058182e-08
1.024613718918539e-08
1.024611523862125e-08
1.024609666315901e-08
1.024608231037941e-08
1.024607344212725e-08
1.024609047779493e-08
1.025309431778711e-08
1.191293273977732e-08
2.962311024630065e-07
2.596570313661843e-05
0.0001856597898308688
5.771447364724382e-14
8.746658857812392e-12
1.654775609420677e-10
1.212549240096676e-09
5.355475897804626e-09
1.725472779748857e-08
4.449119681277968e-08
9.657997169837334e-08
1.824056383664769e-07
3.076816895135802e-07
4.743832828578821e-07
6.821050097640696e-07
9.297518755786927e-07
1.207232570042195e-06
1.519838403017958e-06
1.877952086472264e-06
2.286903180993897e-06
2.751245846041199e-06
3.275488830945274e-06
3.863730062412796e-06
4.517024277443843e-06
5.225935269000043e-06
5.988438633903993e-06
6.824132986290508e-06
7.738314252434975e-06
8.736550646571006e-06
9.82464294859003e-06
1.100857448966119e-05
1.229444588456197e-05
1.368839058210534e-05
1.519646737874333e-05
1.682452538637177e-05
1.85780366378393e-05
2.046189124043294e-05
2.248014985972862e-05
2.463574847942954e-05
2.693015110835024e-05
2.936294788279646e-05
3.193139975704647e-05
3.462993841924763e-05
3.744962222250194e-05
4.037748157185309e-05
4.339568243761336e-05
4.648048469216976e-05
4.960086942765435e-05
5.271662786860685e-05
5.53022792478811e-05
5.750493295240955e-05
5.942053049605421e-05
6.108702324407452e-05
6.249212638295724e-05
6.358728896043594e-05
6.430460190998075e-05
6.457023658808048e-05
6.430612831475379e-05
6.341980736415131e-05
6.18105218460705e-05
5.952772184473403e-05
5.698335298949904e-05
5.469933991977282e-05
5.245012827943623e-05
4.721040469608593e-05
3.948791518447837e-05
3.124715925334436e-05
2.295772320387911e-05
1.520082498205732e-05
8.566649173380146e-06
3.659359165037277e-06
1.041471966479868e-06
2.157696980894742e-07
4.466124922822925e-08
1.54230040220088e-08
1.089915168256408e-08
1.025250759477123e-08
1.016672940298988e-08
1.015613069930804e-08
1.015489291421894e-08
1.015474011969276e-08
1.015470370800001e-08
1.015467772248777e-08
1.015465128745367e-08
1.015462336954046e-08
1.015459390852968e-08
1.015456294998975e-08
1.015453056699632e-08
1.015449685536848e-08
1.015446193532512e-08
1.015442595370244e-08
1.015438908626609e-08
1.015435154016064e-08
1.015431355658148e-08
1.015427541379162e-08
1.015423743076513e-08
1.015419997167041e-08
1.015416345183309e-08
1.015412834573697e-08
1.015409519819573e-08
1.015406464148254e-08
1.015403742317628e-08
1.015401443302855e-08
1.015399666779315e-08
1.015398563666738e-08
1.015405413245996e-08
1.017524698513951e-08
1.452880244773405e-08
6.746166137248343e-07
4.362234212093608e-05
0.0002668807989302538
5.325216673894354e-14
8.070515557358233e-12
1.527043860956209e-10
1.119484677928119e-09
4.950417362729483e-09
1.598737865328648e-08
4.137998554933013e-08
9.029140061229232e-08
1.715660723670186e-07
2.912127944329991e-07
4.516099066394076e-07
6.526401419968847e-07
8.933330959525511e-07
1.165596201729801e-06
1.470346008841549e-06
1.819391240082475e-06
2.218267751208207e-06
2.67152699187294e-06
3.183663241383704e-06
3.759150324834009e-06
4.400670980547709e-06
5.104003388399876e-06
5.85408138908003e-06
6.676923276222381e-06
7.577987529034925e-06
8.563083862589518e-06
9.638355880305531e-06
1.081025698670507e-05
1.208551708051961e-05
1.347109550960472e-05
1.497411708832954e-05
1.660178690245193e-05
1.836127908822311e-05
2.025959414677981e-05
2.230337870115785e-05
2.449870095896529e-05
2.685077456173262e-05
2.936362303355986e-05
3.203967673115483e-05
3.487929405742681e-05
3.788019862519558e-05
4.103682409631437e-05
4.433955995962612e-05
4.777389597386118e-05
5.13194712606858e-05
5.494905127806696e-05
5.862749380090218e-05
6.23104498912449e-05
6.594237043121326e-05
6.932159394187715e-05
7.187869650115915e-05
7.380784489015798e-05
7.522819003419843e-05
7.617177873784846e-05
7.659107563535289e-05
7.638031779270067e-05
7.541125583924675e-05
7.357881937986929e-05
7.084085419278879e-05
6.73128285630808e-05
6.35055130554168e-05
5.999614470849899e-05
5.653351504026624e-05
5.033105369230211e-05
4.066926154337887e-05
3.052748773984245e-05
2.068212671650653e-05
1.203038986801151e-05
5.381498245551932e-06
1.543290988615947e-06
2.886688990972068e-07
5.058126651666876e-08
1.538548585032058e-08
1.072019891276399e-08
1.015005358188556e-08
1.008549617441935e-08
1.007869263058437e-08
1.007800432524003e-08
1.007791631429756e-08
1.007788171142719e-08
1.007784999081076e-08
1.007781680210684e-08
1.007778182771957e-08
1.007774509928218e-08
1.007770669772202e-08
1.007766673277768e-08
1.007762534422143e-08
1.007758270467583e-08
1.007753902255318e-08
1.00774945450857e-08
1.007744956152043e-08
1.00774044066212e-08
1.007735946477419e-08
1.007731517499783e-08
1.007727203763213e-08
1.007723062353493e-08
1.007719158663558e-08
1.007715568180083e-08
1.00771238010275e-08
1.007709704329281e-08
1.007707662846048e-08
1.007706413012546e-08
1.007725407647416e-08
1.012842075133579e-08
1.96165745573863e-08
1.323336806461109e-06
6.355486829994388e-05
0.000355823150101302
5.016428438281661e-14
7.602619565769063e-12
1.438637334187773e-10
1.055029734732624e-09
4.669417823844644e-09
1.510542158215099e-08
3.920433915648082e-08
8.586644205256342e-08
1.638884783457853e-07
2.794815096793464e-07
4.353248102946103e-07
6.315332972084025e-07
8.672532313735339e-07
1.136060490526906e-06
1.435395707195702e-06
1.778245496437069e-06
2.17035248501953e-06
2.616316846366527e-06
3.120649303570486e-06
3.687989490336477e-06
4.321626865032483e-06
5.019222655062341e-06
5.761186748135251e-06
6.575594056591504e-06
7.468057231536908e-06
8.444506136998136e-06
9.511252295240805e-06
1.067497778532793e-05
1.194271852181094e-05
1.332183742980293e-05
1.481998507800012e-05
1.644504413187762e-05
1.820505344328112e-05
2.010810689880219e-05
2.216222134834138e-05
2.437516704001601e-05
2.675425302532754e-05
2.930605900209317e-05
3.203610408180133e-05
3.494844208285042e-05
3.804517226550784e-05
4.132585408925988e-05
4.478681478657842e-05
4.842033951095937e-05
5.221373573411325e-05
5.614826653115539e-05
6.01979510774368e-05
6.432823341898034e-05
6.849453222396474e-05
7.264072431288737e-05
7.669754790159433e-05
8.058027440273143e-05
8.362918549359745e-05
8.574252070720372e-05
8.707708399023218e-05
8.768838137525182e-05
8.753150836067449e-05
8.648839724764594e-05
8.441238184715343e-05
8.119674080720681e-05
7.688182473564459e-05
7.184150257753085e-05
6.688315799738002e-05
6.252936309611879e-05
5.788582700829334e-05
4.762527778315959e-05
3.587164950718031e-05
2.422683520237496e-05
1.392880095162061e-05
6.070545880243896e-06
1.614248107610309e-06
2.647519507871395e-07
4.199281400077596e-08
1.363523334183864e-08
1.039158054177005e-08
1.004938145826318e-08
1.001593672495524e-08
1.001288129582417e-08
1.001259542888455e-08
1.001254216338583e-08
1.001250532569658e-08
1.001246779377402e-08
1.001242833691533e-08
1.001238692937434e-08
1.001234365458719e-08
1.001229863154868e-08
1.001225201319726e-08
1.001220398958891e-08
1.001215479142277e-08
1.001210469371961e-08
1.001205401973675e-08
1.001200314528097e-08
1.001195250374311e-08
1.001190259218065e-08
1.001185397927416e-08
1.001180731639864e-08
1.00117633530073e-08
1.001172295420019e-08
1.00116871294587e-08
1.001165715751715e-08
1.001163463595921e-08
1.001162151173153e-08
1.001203585470909e-08
1.011501471725193e-08
2.795805667013701e-08
2.308372591863954e-06
8.48192926193535e-05
0.0004516607291039701
4.786955544981324e-14
7.254901775251203e-12
1.37292935237466e-10
1.007099901780709e-09
4.460200151893413e-09
1.444718123381436e-08
3.757442498793262e-08
8.253496057155777e-08
1.580764455675195e-07
2.705554237931726e-07
4.228834528946917e-07
6.153630553121727e-07
8.47240186571624e-07
1.113442344096169e-06
1.408630867507066e-06
1.746744514626663e-06
2.133694350294009e-06
2.574121214888841e-06
3.072560827279578e-06
3.633688946661286e-06
4.260958643474639e-06
4.952520851138231e-06
5.690057612864331e-06
6.498072049166666e-06
7.384023099657119e-06
8.35392241374098e-06
9.414193517170848e-06
1.057166838495149e-05
1.183358054990405e-05
1.320755031264035e-05
1.47015601670502e-05
1.632391731934883e-05
1.808319970070954e-05
1.998818123285307e-05
2.204773133613223e-05
2.427068277008472e-05
2.666566087559275e-05
2.92408661540506e-05
3.20038008911664e-05
3.496092925309746e-05
3.811725900662577e-05
4.147583183342876e-05
4.503710825672162e-05
4.879823264655715e-05
5.275216385928427e-05
5.688665810359219e-05
6.118309300819456e-05
6.561512614162406e-05
7.014718807995853e-05
7.473281992509799e-05
7.931287703753098e-05
8.381363774128275e-05
8.814492372356586e-05
9.218138189652751e-05
9.500958095603329e-05
9.68074902582493e-05
9.767098816326005e-05
9.758477993923431e-05
9.643444485989872e-05
9.40534210581197e-05
9.030595503270377e-05
8.521072202801103e-05
7.910737636665605e-05
7.294525217579862e-05
6.751542075711321e-05
6.200508166914118e-05
5.192780484675424e-05
3.865823305053819e-05
2.54717218904035e-05
1.399058622740303e-05
5.571877716307386e-06
1.254415240548258e-06
1.757168532203793e-07
2.794855056122231e-08
1.173257041331191e-08
1.011821903182801e-08
9.969853469898805e-09
9.957209136408957e-09
9.956181090022508e-09
9.95607174208234e-09
9.956027870236378e-09
9.955986402550319e-09
9.955943043830554e-09
9.955897583864499e-09
9.95585010319276e-09
9.95580073113319e-09
9.955749634732413e-09
9.955697021763637e-09
9.955643144565911e-09
9.955588304079123e-09
9.955532854142242e-09
9.955477206265255e-09
9.955421835241889e-09
9.955367285992939e-09
9.955314182408661e-09
9.955263239683351e-09
9.9552152834296e-09
9.955171272026982e-09
9.955132303382698e-09
9.955099737769198e-09
9.955075605752477e-09
9.955063208821847e-09
9.955842583698404e-09
1.013891005250578e-08
4.04257942756901e-08
3.699980433620671e-06
0.0001073485216110942
0.000555239543568567
4.607978951266731e-14
6.983697084476018e-12
1.321674795805232e-10
9.696983429355053e-10
4.296778591709135e-09
1.393204703953154e-08
3.629503012476459e-08
7.990948557123249e-08
1.534755628108174e-07
2.634591331131187e-07
4.129573466145052e-07
6.024279131835575e-07
8.312021942239489e-07
1.095323830299074e-06
1.387172623081952e-06
1.721471642559491e-06
2.104267049688423e-06
2.540230250894857e-06
3.033925213892034e-06
3.590049095800593e-06
4.212181548217901e-06
4.898843399152591e-06
5.632666767122048e-06
6.435477565103752e-06
7.316109270092443e-06
8.280632212940279e-06
9.335550206040747e-06
1.048780241361073e-05
1.174476322171874e-05
1.311423568327064e-05
1.460443704555965e-05
1.622397360544431e-05
1.798180172500367e-05
1.988717126418224e-05
2.194954697859394e-05
2.417850258410014e-05
2.658358120408579e-05
2.917411478519138e-05
3.195899379234094e-05
3.494637709038474e-05
3.8143330410181e-05
4.15553802301604e-05
4.518596836650333e-05
4.903579117000886e-05
5.310200615712831e-05
5.7377288402525e-05
6.184871942311419e-05
6.649649302485444e-05
7.129242621605088e-05
7.619826950612615e-05
8.116382060791231e-05
8.612485998338482e-05
9.100094689903554e-05
9.569313740196644e-05
0.0001000817370985679
0.0001034394961862403
0.0001055953830385582
0.000106639713202154
0.0001065533435094402
0.0001052090065502371
0.0001024169301608253
9.802049843566306e-05
9.205049341060729e-05
8.492303856098892e-05
7.767469408029965e-05
7.123714251609781e-05
6.487231490585813e-05
5.367791500623811e-05
3.88821188710489e-05
2.442424262102846e-05
1.235155905326423e-05
4.164773570202116e-06
7.307022509866221e-07
8.945107363556032e-08
1.743196193046391e-08
1.055940848057316e-08
9.959003783423236e-09
9.910544160607491e-09
9.906895209663824e-09
9.906606108863425e-09
9.906548029933288e-09
9.906502594635503e-09
9.906455724519765e-09
9.906406644935644e-09
9.906355413919718e-09
9.906302170229556e-09
9.906247094850712e-09
9.906190412904543e-09
9.906132397713021e-09
9.906073375106957e-09
9.906013728001595e-09
9.905953901466066e-09
9.905894408701871e-09
9.905835838426401e-09
9.905778864364302e-09
9.905724257784309e-09
9.905672908594133e-09
9.905625860276144e-09
9.905584303945087e-09
9.90554959225931e-09
9.905524053415178e-09
9.905513767760465e-09
9.906834010628762e-09
1.020483497077597e-08
5.803562602925957e-08
5.575665455063703e-06
0.0001314694156988806
0.0006676075585093956
4.463652751394732e-14
6.764996190165044e-12
1.2803394392044e-10
9.395254598833692e-10
4.164836121020031e-09
1.351549452681749e-08
3.525792019122958e-08
7.777417893258132e-08
1.49719612592538e-07
2.576449239418397e-07
4.047994076283384e-07
5.917716627218233e-07
8.179669928378558e-07
1.080367436994298e-06
1.369441782961472e-06
1.700571422527419e-06
2.079912996788209e-06
2.512162017291066e-06
3.001903845408965e-06
3.553852838752509e-06
4.171690535231277e-06
4.854238162301833e-06
5.584905295740955e-06
6.383332290288867e-06
7.25946493794381e-06
8.219416832111469e-06
9.26975139951004e-06
1.041748772386708e-05
1.167010546126134e-05
1.303554440333926e-05
1.452219749468595e-05
1.613889481935332e-05
1.789487571207324e-05
1.979974563067306e-05
2.186341377428324e-05
2.409600664404093e-05
2.650775181310457e-05
2.910882508683627e-05
3.190915298377686e-05
3.491816105402921e-05
3.814445697651466e-05
4.15954356615608e-05
4.527679178080144e-05
4.919192332113039e-05
5.334120803994309e-05
5.772113326788371e-05
6.232325862524602e-05
6.713299126327999e-05
7.212815471832613e-05
7.727733607091333e-05
8.253800276779754e-05
8.785439147125827e-05
9.315518846342374e-05
9.835104729728834e-05
0.0001033320288283542
0.0001079651035819831
0.0001114935169290933
0.0001137488337610685
0.0001147855618263367
0.0001145423290671295
0.0001128481345016784
0.0001094766463140108
0.0001042608604170645
9.727821587880265e-05
8.90741978425993e-05
8.087545652527146e-05
7.369396705716247e-05
6.651592214593314e-05
5.29037203362647e-05
3.660914300740165e-05
2.132486618906295e-05
9.444283240072172e-06
2.434586657254434e-06
3.212392592448389e-07
3.887851439552649e-08
1.227925686434101e-08
1.00481215600206e-08
9.875927321395035e-09
9.863625690133383e-09
9.862776301203399e-09
9.862682182681078e-09
9.862631905690452e-09
9.862581791324531e-09
9.862529430957161e-09
9.862474806819935e-09
9.862418064251769e-09
9.862359397349852e-09
9.862299047519733e-09
9.862237307631845e-09
9.862174526559094e-09
9.862111113989159e-09
9.862047545746102e-09
9.861984370052334e-09
9.861922215369354e-09
9.861861800740528e-09
9.861803948445756e-09
9.861749603179332e-09
9.861699881315477e-09
9.861656091056368e-09
9.86161955491334e-09
9.861592578122031e-09
9.861585462901277e-09
9.863644459787315e-09
1.031687671549513e-08
8.188768061337331e-08
8.01630914226785e-06
0.0001575949261971649
0.0007893604306969742
4.344404042110794e-14
6.584294287130842e-12
1.246183714824183e-10
9.145868205283734e-10
4.055709897138011e-09
1.317053005946861e-08
3.439727839307867e-08
7.599729523075356e-08
1.465842104433277e-07
2.527762132090567e-07
3.979498063025601e-07
5.828056845616424e-07
8.068138130220632e-07
1.067757463411761e-06
1.354478097048222e-06
1.682918467867686e-06
2.059327026334838e-06
2.488418308005872e-06
2.974793838772166e-06
3.523181653919053e-06
4.137348132627796e-06
4.816369430583232e-06
5.544323251879166e-06
6.338979879464055e-06
7.211228929145718e-06
8.167216633521412e-06
9.213551879544622e-06
1.035731511564068e-05
1.160606721146406e-05
1.296785379005045e-05
1.445120407756432e-05
1.606512199366955e-05
1.781906688898382e-05
1.972292086482111e-05
2.17869390065847e-05
2.402167812769748e-05
2.643789874653655e-05
2.904643398553594e-05
3.185801787777521e-05
3.488306418362797e-05
3.813138524797288e-05
4.161183867445051e-05
4.533188768025176e-05
4.929705896332994e-05
5.351027984971867e-05
5.797107452188186e-05
6.267459746112687e-05
6.761048117193056e-05
7.276147521548173e-05
7.810185517455197e-05
8.359558423930022e-05
8.919421780503024e-05
9.483455444586642e-05
0.0001004360572062996
0.0001058981008025405
0.0001110971485318471
0.0001158840325202808
0.0001193106811288639
0.0001214273033549834
0.000122242753973681
0.0001216360993634043
0.0001193771233262627
0.0001152005212021247
0.0001089515557050438
0.000100807014176904
9.150938957449883e-05
8.25438110229384e-05
7.48493704536052e-05
6.667402627362845e-05
4.964071897388076e-05
3.204722387535422e-05
1.66966725774369e-05
5.970561967129498e-06
1.056480231001605e-06
1.122186595089092e-07
1.810901735624858e-08
1.043550308171609e-08
9.865178974050529e-09
9.826088176185268e-09
9.823576677860514e-09
9.823385191636628e-09
9.823327159027033e-09
9.823273911927676e-09
9.823218537972508e-09
9.823160806826415e-09
9.823100864096075e-09
9.823038916162741e-09
9.822975219823408e-09
9.822910086269061e-09
9.822843885788693e-09
9.822777052761631e-09
9.822710091180321e-09
9.82264358111975e-09
9.82257818684479e-09
9.822514668091897e-09
9.822453894038629e-09
9.822396857439588e-09
9.822344727300912e-09
9.822298943840043e-09
9.822260866127704e-09
9.822232353920939e-09
9.822229040949952e-09
9.825237034750029e-09
1.047898838577036e-08
1.133121923248697e-07
1.110992538085766e-05
0.0001861791878234193
0.0009206950644836871
4.243815276579802e-14
6.43186739937467e-12
1.217370798545515e-10
8.93544565441076e-10
3.963581981821262e-09
1.287898322955393e-08
3.366864175757763e-08
7.448941532952104e-08
1.439162843341585e-07
2.486223363233632e-07
3.920923466460228e-07
5.751244127259189e-07
7.972456724000093e-07
1.05693417939493e-06
1.34162329433305e-06
1.667741969756286e-06
2.041616262556278e-06
2.467975866194786e-06
2.95143458206564e-06
3.496731293713561e-06
4.107704588527217e-06
4.783652381367625e-06
5.509241639356553e-06
6.300601224225199e-06
7.169442799685424e-06
8.121937571335351e-06
9.164729700598616e-06
1.030494768969175e-05
1.155021642407701e-05
1.290866534504152e-05
1.438893199561593e-05
1.600015882951375e-05
1.775198089257814e-05
1.965450155320438e-05
2.171825289660067e-05
2.395413670973283e-05
2.637334115933281e-05
2.898722728380921e-05
3.180717826657974e-05
3.484440312039847e-05
3.810968487039103e-05
4.1613061577319e-05
4.536342659490605e-05
4.936803232739447e-05
5.363187950126124e-05
5.815697167601307e-05
6.294141254328316e-05
6.797832173524346e-05
7.325454371687553e-05
7.874912437064936e-05
8.443153178862478e-05
9.025960252885922e-05
9.617720351333754e-05
0.0001021116146914391
0.0001079706611794345
0.0001136396596108978
0.0001189782976163175
0.0001236411854506444
0.0001268364137478139
0.0001286515146865724
0.0001290480427640363
0.0001278447839209472
0.00012475657880117
0.0001195016632927517
0.0001119977530831262
0.0001026273624845162
9.243995074608542e-05
8.312986915477019e-05
7.482858544069147e-05
6.246848343892897e-05
4.374547535834222e-05
2.555313401307799e-05
1.128145323473207e-05
2.853556662738968e-06
3.387349474522608e-07
3.625668138547068e-08
1.168415231362149e-08
9.912815386286816e-09
9.795505353949171e-09
9.788307081986934e-09
9.787855037508316e-09
9.787781344538762e-09
9.787724804628667e-09
9.787666620805638e-09
9.787606011222224e-09
9.787543107195129e-09
9.787478126358554e-09
9.787411340172467e-09
9.787343077169519e-09
9.78727372776186e-09
9.787203749357706e-09
9.787133672034478e-09
9.787064105182804e-09
9.78699574566494e-09
9.786929389608824e-09
9.786865949367291e-09
9.786806463840312e-09
9.786752133152524e-09
9.786704515516656e-09
9.786665152070496e-09
9.786635049116497e-09
9.786635747782083e-09
9.790815396446833e-09
1.069668495433287e-08
1.541654584481011e-07
1.495850172788455e-05
0.000217732029600015
0.001061583207166006
4.157462856530165e-14
6.301012729992055e-12
1.19263442558344e-10
8.754760405670375e-10
3.884436060324981e-09
1.262828651947686e-08
3.304116561572551e-08
7.318826431679298e-08
1.416087697560455e-07
2.450213219016231e-07
3.870043336856244e-07
5.684416870823556e-07
7.889116548368405e-07
1.047503726731328e-06
1.330414654252094e-06
1.6545007446498e-06
2.026154859377969e-06
2.450119057184308e-06
2.931016672462964e-06
3.473595303946019e-06
4.081755844679234e-06
4.754991208263334e-06
5.478492678203308e-06
6.266935398607394e-06
7.132754160250452e-06
8.082139666396382e-06
9.121764034881121e-06
1.025879422182886e-05
1.150090669566963e-05
1.285629878019979e-05
1.433369607903021e-05
1.594235400846705e-05
1.76920512166283e-05
1.959307226596691e-05
2.165617643096946e-05
2.389254881519427e-05
2.631372921178695e-05
2.893151319769526e-05
3.175781884755753e-05
3.480451116283097e-05
3.808317481108281e-05
4.160482405177062e-05
4.537953678034242e-05
4.941599745815888e-05
5.372093134541584e-05
5.829840997617108e-05
6.314900531941585e-05
6.826876774060512e-05
7.364800098297939e-05
7.926980634553363e-05
8.510836864107239e-05
9.112695922897005e-05
9.727563766627092e-05
0.0001034886450640206
0.0001096815016608667
0.0001157478523875068
0.0001215561536911261
0.0001269463738137315
0.000131228895714514
0.0001340187161057122
0.0001353534146091664
0.0001351235701971884
0.0001330760763175848
0.0001288796048631441
0.0001222734900040781
0.0001133168693528543
0.0001026924695344259
9.192358866828939e-05
8.252810486656208e-05
7.346663706618053e-05
5.578380610223256e-05
3.568447425222719e-05
1.808002608137386e-05
6.105767457360507e-06
9.521016487910492e-07
8.891166134546404e-08
1.530256284820972e-08
1.01104637770847e-08
9.776408437558679e-09
9.756599725181782e-09
9.755471494873295e-09
9.755362290838596e-09
9.755301743536088e-09
9.755240890794675e-09
9.755177585968437e-09
9.75511191265402e-09
9.755044098053251e-09
9.754974427608038e-09
9.754903246330744e-09
9.75483096364155e-09
9.75475805856083e-09
9.754685085479102e-09
9.754612680988596e-09
9.75454157205094e-09
9.754472587434489e-09
9.754406678292104e-09
9.754344931631876e-09
9.754288565313321e-09
9.754239204994074e-09
9.75419876269531e-09
9.754167111257944e-09
9.7541716605349e-09
9.759765563423548e-09
1.097872903378373e-08
2.071887918674457e-07
1.968387018456829e-05
0.0002528263722829566
0.001211881421486842
4.082065343141948e-14
6.186758028428011e-12
1.171035112529262e-10
8.596962864824488e-10
3.815285910387955e-09
1.24090669969273e-08
3.249172729150603e-08
7.204680411334967e-08
1.395799840092127e-07
2.418480512681093e-07
3.825111175245053e-07
5.625288233041323e-07
7.815244419739594e-07
1.03895475967544e-06
1.320446884870417e-06
1.642765905662607e-06
2.01245737713797e-06
2.434294854703733e-06
2.9129147960215e-06
3.453073561111289e-06
4.058726810540144e-06
4.729539665654758e-06
5.451169931970769e-06
6.237005966236289e-06
7.100117911973905e-06
8.046712074719404e-06
9.083483261310358e-06
1.021762991209953e-05
1.145687099227325e-05
1.280946000219985e-05
1.428419566658748e-05
1.589042744511705e-05
1.763805378466225e-05
1.953751066051052e-05