/*--------------------------------*- C++ -*----------------------------------*\
| =========                 |                                                 |
| \\      /  F ield         | OpenFOAM: The Open Source CFD Toolbox           |
|  \\    /   O peration     | Version:  v1812                                 |
|   \\  /    A nd           | Web:      www.OpenFOAM.com                      |
|    \\/     M anipulation  |                                                 |
\*---------------------------------------------------------------------------*/
FoamFile
{
    version     2.0;
    format      ascii;
    class       volScalarField;
    location    "1000";
    object      omega;
}
// * * * * * * * * * * * * * * * * * * * * * * * * * * * * * * * * * * * * * //

dimensions      [0 0 -1 0 0 0 0];


internalField   nonuniform List<scalar> 
10947
(
1142164.412138376
209496.0189105116
73205.61951122615
35391.24118389888
20703.32865313795
13762.19688317282
10023.68832939808
7789.606593364717
6325.306049740322
5286.635844944088
4503.706661184257
3885.260978040842
3378.959086419056
2954.406365601306
2592.901653318741
2282.096849582981
2013.231419532389
1779.613951714589
1575.892602130344
1397.710696310695
1241.44767370606
1104.058927868731
982.985355556085
876.1439607104954
781.638016104059
697.7296725623713
623.0701924097476
556.5097905365518
497.05537159476
443.8492078624342
396.1494708849723
353.3128874589145
314.7798635262521
280.0628642456984
248.7395482187385
220.4525631037848
194.9165353471182
171.9269083938289
151.3528966148074
133.0872862026815
116.9320965420984
102.7327594793672
90.39762858775227
79.75198330193858
70.5715602878503
62.6269986012549
55.70276824474845
49.6030222560214
44.15418193965805
39.2104854006408
34.66318351707653
30.44666206997357
26.53548627848486
22.93441712825377
19.66752466357287
16.76940173043947
14.27759212152959
12.22469383424457
10.62925011344389
9.484831780836275
8.747681876539991
8.331321683539171
8.127040183288067
8.039505008329442
8.006068612480234
7.994256249627764
7.99033641406263
7.989133961276162
7.988791854318449
7.988700975489269
7.98867808327856
7.988672190394849
7.988670250018512
7.988669122052243
7.988668083851874
7.988666975356423
7.988665761494596
7.988664435406128
7.988662998389092
7.98866145548572
7.988659814250878
7.988658084304806
7.98865627711339
7.988654405847674
7.988652485235346
7.988650531385865
7.988648561558734
7.988646593882664
7.988644647011326
7.988642739735277
7.988640890563653
7.988639117301184
7.988637436653437
7.98863586390414
7.988634412714273
7.988633095102244
7.988631921670098
7.988630902163751
7.988630046562631
7.988629367009207
7.988628879992413
7.988628605955219
7.988628567622904
7.988628919346752
7.988633930684901
7.98975550775168
8.24438059367095
23.75095829668659
1142168.747934929
209392.9756886709
73023.52210891989
35105.13563510949
20306.16537223811
13268.66119273179
9464.170588734476
7199.397357319466
5733.853994950833
4712.107847982835
3954.803620248288
3367.761328022403
2898.698524943782
2515.201461303356
2195.827518493159
1926.482687052796
1697.351430690391
1501.193303609705
1332.424829345269
1186.604342046954
1060.123649995199
950.0128367951501
853.8072190150493
769.4503252228621
695.2193566242627
629.6667140870068
571.5728734417738
519.9074263642304
473.7972420626351
432.5002276949167
395.3837115866428
361.9066755314235
331.6052239329364
304.0808040144499
278.9907744599175
256.0409376327505
234.9795776817326
215.5923918884043
197.6975824162721
181.140592119378
165.7888762679947
151.5284882352686
138.261675656577
125.9040883683523
114.3822980398279
103.6308559918127
93.58733603220655
84.18448037358843
75.35609261522744
67.2082941569503
59.95301620222329
53.55055679674169
47.86263547493043
42.78869701087111
38.16044858692836
33.79896405497202
29.60920564006735
25.56253095318979
21.68773487620469
18.05502606877523
14.76564007763383
11.94013738304083
9.699348711737834
8.136582358542617
7.257573141018321
6.890470765141192
6.774837909767822
6.74452927087986
6.737407732000687
6.735864444862381
6.735539433509478
6.735461988773636
6.73542783557654
6.735395288441312
6.735356501100735
6.735310095149143
6.735255752166954
6.735193352981853
6.735122858019998
6.735044288690232
6.734957729005531
6.734863332556478
6.734761331267254
6.734652044887338
6.734535891133753
6.734413395802901
6.734285202549899
6.734152081810895
6.73401493842155
6.733874817497819
6.733732908309153
6.733590546109804
6.733449212332079
6.733310534261395
6.733176286328804
6.733048396767578
6.732928965722836
6.732820304344624
6.732725009487435
6.732646098328688
6.732587250312428
6.732553242960035
6.732550184520377
6.732585919092736
6.73269429593755
6.738626699517195
7.48446250862457
29.20057949178806
1142167.393774379
209385.5607062208
73003.07667989217
35065.6599761195
20244.72831362602
13186.67132438753
9367.416036371291
7096.27274822968
5632.285754814477
4617.102083418497
3868.02425342866
3288.609944756756
2825.60453486302
2446.637952544559
2130.522715379423
1863.373918656821
1635.708254901944
1440.64791491491
1272.948077067525
1128.427217935516
1003.556022020365
895.1655868289296
800.6228778530444
717.8665478183963
645.1923870684875
581.1817323799751
524.6464158420731
474.5856190940348
430.1519965265416
390.6247511978203
355.3880949188299
323.913919046851
295.7477931816542
270.4976242868726
247.824471086399
227.4351342323487
209.0762438680491
192.5296534504141
177.6090328574559
164.1439516471224
151.9442112300867
140.8201685927643
130.6154035709463
121.1985832107491
112.4576746664771
104.2959560344579
96.62931972357677
89.38479939147777
82.50094783190572
75.93101545260896
69.64394187693186
63.61808199241044
57.83178358443871
52.26301496177577
47.07693074905963
42.43224116598103
38.21633957134318
34.3047975202271
30.59911486023986
26.96300978596494
23.31631356754761
19.67019244628536
16.10605776229066
12.78040217710686
9.92207440640856
7.782356514257287
6.53204282277548
6.043072792114696
5.916045638103506
5.890228286037738
5.885581660138649
5.884784865946183
5.884625138349316
5.884558737550527
5.884499606246825
5.884435044377169
5.884363155502281
5.884283473881432
5.884195740923281
5.884099758697801
5.883995375466022
5.883882491579043
5.883761070079603
5.883631149608648
5.883492859319133
5.883346435864371
5.883192242226295
5.883030788368957
5.882862753588367
5.882689010399581
5.882510649916463
5.882329008565996
5.882145696939197
5.881962630533963
5.881782065209737
5.881606639322874
5.881439428153087
5.881284018992297
5.881144619451471
5.881026215045199
5.880934814441315
5.880877830587517
5.880864936323326
5.880906896732532
5.881070845918517
5.89575873969464
7.298537152695042
31.85006514070204
1142166.518477795
209380.9059668878
72990.25286893225
35041.04176375543
20206.64225597922
13136.03807945437
9307.749965165876
7032.761025839241
5570.119434128277
4559.972743617557
3817.637935085599
3245.132093090175
2788.380740094369
2414.854936002783
2103.338727212858
1839.884301560813
1615.055280136183
1422.065525147111
1255.778173403139
1112.14200001916
987.8291696975168
879.9245839253116
785.8345171635956
703.4387448372463
631.0497263209262
567.2638318652652
510.9063905763572
460.9887784180463
416.6746378211928
377.2530283542752
342.1169015604669
310.7457251154151
282.6913680403173
257.5665682369192
235.0354580728259
214.8057387635811
196.6221802412415
180.2611870735311
165.5262171751254
152.2438706744793
140.2605944239046
129.4402382721753
119.6624278933015
110.8215029358342
102.8260639938309
95.599277361986
89.04338537895703
83.04517256625843
77.50912913160144
72.35336638888144
67.50685977352319
62.90754188153759
58.50105756932494
54.24095984905498
50.09148602142142
46.02106938894939
41.98672669326218
38.09755350227054
34.54898910928974
31.25784921129969
28.08057634615465
24.9288158355082
21.70152102151725
18.34700615745573
14.91938039763783
11.59363427268815
8.693177381809875
6.627576398200203
5.622096845397973
5.335592140848111
5.281571052301206
5.273134489417209
5.271898181324429
5.271677863463042
5.27158374611182
5.271497906521659
5.271405772496127
5.271305488493677
5.271196655277453
5.271079069179768
5.270952594924414
5.270817160450087
5.270672766673099
5.270519500355777
5.270357548750467
5.270187215999083
5.270008941061406
5.269823317253385
5.269631113410152
5.269433296820789
5.269231058253331
5.269025839486013
5.268819364695948
5.268613676457989
5.26841117978685
5.268214697268038
5.268027541572349
5.267853614894545
5.267697550955589
5.267564914883204
5.267462420176848
5.26739849001832
5.267384731965652
5.267436125393377
5.267700475529207
5.297009647980248
7.468665971983071
33.53982377423706
1142165.944119755
209377.8495080673
72981.80628439374
35024.74815159709
20181.25870163211
13101.9627550081
9267.069998436598
6988.74221023977
5526.192771874993
4518.73551985451
3780.438309241103
3212.270859885461
2759.548768696503
2389.6783828168
2081.448721486537
1820.819522976877
1598.352567228552
1407.297407744005
1242.565129305097
1100.158043457234
976.819881469107
869.7613921962691
776.4327131411536
694.695489116138
622.8752004060732
559.5790052083129
503.6412717428918
454.0811215426958
410.0689409395865
370.8997691480575
335.9719497627269
304.7698860417111
276.8500232013217
251.8293881640332
229.3761703433647
209.2019417838241
191.0552018995534
174.7159986720147
159.9914298011822
146.7118678411347
134.7277831814991
123.9070545915588
114.1326733247136
105.3007726004848
97.31892496000144
90.10463975101925
83.58396960706366
77.69082585543993
72.36737053847457
67.55913309001123
63.19533437027805
59.19604615814189
55.49048278138122
52.01499740142934
48.71170747619471
45.52705216759337
42.41070397229073
39.31860493636147
36.20875059251769
33.07723866790441
30.1309233670206
27.36810352369061
24.62791939684435
21.82283078120244
18.86481548169906
15.68984978841727
12.37012420526828
9.184033425724587
6.655834140447319
5.290989737136981
4.889635050699508
4.820282413362939
4.810849838865092
4.809641685033361
4.809431359926742
4.809325633950935
4.809223110297268
4.809112963636472
4.808993915452088
4.808865650855993
4.808727993034926
4.808580837761163
4.808424159563676
4.808258026130721
4.808082615186658
4.807898233419741
4.807705337169219
4.807504554865483
4.807296711144186
4.807082852667046
4.806864275855046
4.806642556882126
4.80641958516598
4.806197601334025
4.805979243179975
4.805767603359174
4.8055663057144
4.805379610415597
4.805212568015358
4.805071255129179
4.804963010409154
4.804896920986675
4.804885291255125
4.804947507376261
4.805378258035214
4.856400522745594
7.843340700803147
34.69853894894858
1142165.536221403
209375.6806235604
72975.80267644179
35013.1373304317
20163.10328542081
13077.46636002335
9237.63219703056
6956.635502823805
5493.875093052589
4488.131152315656
3752.597594318321
3187.475003459124
2737.610381065127
2370.358818484053
2064.511689841408
1805.952474882886
1585.239110801518
1395.648124816801
1232.128232675754
1090.721801712117
968.216913927104
861.8849544847179
769.2041052790689
688.0379131386251
616.7222053765248
553.87261510064
498.3303265156673
449.1200407177201
405.4167757265144
366.5194790234287
331.8298468219095
300.8352061914737
273.0945943195027
248.2273732271426
225.9038690810147
205.8376382574934
187.7790479289324
171.5099244811757
156.8390736875221
143.5985159119604
131.6403104228128
120.8338671713479
111.0636638046169
102.2273016042054
94.23384726600395
87.00241883067063
80.46098499184762
74.54534059099903
69.19820446013563
64.36838920669281
60.01015540733136
56.08353864570808
52.53990189689566
49.31799962369464
46.35728334831213
43.60086538804497
40.99380535711607
38.48156641207666
36.00884717678228
33.52146495550055
30.97225314042165
28.38842836060456
25.92741834125563
23.51931462360217
21.04100883290432
18.41298832424188
15.51573035814892
12.33273120266399
9.085807236338132
6.376885133073102
4.913333258021165
4.516055587522056
4.456242812879058
4.449178792634719
4.448358162189818
4.448190227185044
4.448077900594592
4.447962474780241
4.447838404266738
4.447705010755279
4.447562073665583
4.447409469051
4.447247153459553
4.447075177060524
4.446893700980856
4.446703017015586
4.446503569424687
4.446295978834192
4.446081068254582
4.445859891305568
4.445633762935008
4.445404293027242
4.445173424131452
4.444943474359304
4.444717188807605
4.444497803394597
4.444289128055089
4.444095657938944
4.443922729325696
4.44377677639242
4.443665630994954
4.443598915674994
4.443588709807454
4.443658124451169
4.444326083072395
4.52490955961867
8.322671166852333
35.40408557324987
1142165.227834129
209374.0422942284
72971.26310324141
35004.34350839569
20149.31951271319
13058.80644728438
9215.111903097619
6931.949616239263
5468.896100438635
4464.361393030792
3730.886802626971
3168.076866693372
2720.403307539538
2355.174439997435
2051.178832981375
1794.235736048848
1574.897890618303
1386.462012539624
1223.906432307742
1083.304180049912
961.4724249615359
855.7120305280827
763.536899689252
682.825300973816
611.913730131101
549.4245337340112
494.2043019021889
445.2821509461357
401.8367446719774
363.1700783425185
328.686425814909
297.8753180364392
270.2976957680306
245.5745810751814
223.3777612277443
203.4220904004237
185.4590992572525
169.2716673775992
154.6695636227169
141.4856985649795
129.572963716132
118.8015564556256
109.0567087270246
100.2367528970878
92.25147050181828
85.02067960894395
78.4730247005751
72.54493965686721
67.17976058481119
62.32697264713644
57.94158015384097
53.9835717023438
50.41741146124848
47.21182553555091
44.32461251761238
41.70318131999495
39.29728784590586
37.05718604421752
34.93150420738161
32.865204057863
30.79920072442543
28.6758879608623
26.44396035210645
24.24405974900457
22.09999727292488
19.87770303692144
17.48259337103291
14.79024655462261
11.72197039350061
8.480629694162863
5.795069927936891
4.489943853714386
4.198674634271817
4.162076528132524
4.158290125544444
4.157851977737336
4.157714857722089
4.157595141519371
4.157468354325548
4.157332346627805
4.157186786718774
4.157031537006855
4.15686654733118
4.156691862209353
4.156507637972555
4.156314162674034
4.15611187817909
4.155901404449413
4.155683566049102
4.155459421035575
4.155230292564485
4.154997803725259
4.154763916896412
4.154530978867583
4.154301775065008
4.154079596959655
4.153868330324836
4.153672573099451
4.153497789369478
4.15335055954178
4.153238982244052
4.153173202164848
4.153164509951589
4.153238646552218
4.154229116350965
4.273243754187281
8.849086175902983
35.74865471412107
1142164.984347496
209372.7495407036
72967.67823681976
34997.39022545506
20138.40036457601
13043.98678685649
9197.167849688583
6912.205035361411
5448.838425892308
4445.207082872536
3713.34280968328
3152.370604316983
2706.452382558577
2342.853385861023
2040.356144489608
1784.724608826834
1566.505372111632
1379.010246953503
1217.24102493144
1077.29547730735
956.0143042252005
850.7220840634116
758.9608908766571
678.621045800613
608.0402621343221
545.8464856241029
490.8908165866666
442.2060555603395
398.9739094370959
360.4989177055756
326.1875050996452
295.5310390470004
268.092042030196
243.4929086502394
221.4066248417894
201.5490973862762
183.672785795783
167.5613929610323
153.0254206961804
139.8984350415038
128.033916577643
117.3025949973043
107.5901862141474
98.79546551192568
90.82862247340181
83.6098533489067
77.06815465924184
71.14028861391775
65.7698967107726
60.9067429673685
56.50607295239055
52.52807971311892
48.93747540346028
45.70316086581478
42.79796066483895
40.18896676732182
37.83438395972842
35.69092366909592
33.71476063989753
31.85910036194413
30.07143261539228
28.29192415128269
26.456676943637
24.51339670842431
22.54759643505319
20.60039948787974
18.56189805155679
16.32661169495471
13.7495659715065
10.72040880301241
7.499804142071867
5.043837071491473
4.095627906991563
3.937018336726162
3.920507390904926
3.918956312631241
3.918729634347633
3.918602249909046
3.918473859949301
3.918336706253533
3.918190071861497
3.918033790951244
3.917867807591235
3.917692162040959
3.917507006782547
3.917312626527565
3.917109460539232
3.916898127208733
3.916679450919389
3.916454491367189
3.91622457568171
3.915991333884989
3.915756738986732
3.915523153073788
3.915293382683608
3.915070747424584
3.914859170042494
3.914663300128055
3.914488669409052
3.914341903153004
3.914231192619097
3.9141672735414
3.914160543034424
3.914238204929077
3.915653805822927
4.083252432664881
9.392218724989387
35.87183598686145
1142164.786254034
209371.6982049706
72964.76087555118
34991.72564032402
20129.49135059867
13031.87025555306
9182.458147461886
6895.96980739079
5432.293851197542
4429.363295276397
3698.799601105326
3139.331746367931
2694.860387309594
2332.611160692552
2031.358816645798
1776.819216503454
1559.532584056139
1372.822499919728
1211.709832426524
1072.312747637538
951.4914857744798
846.5903557871678
755.1748299417548
675.1453758136906
604.8408900033448
542.89403308616
488.1597038976529
439.6738064632734
396.6206121166143
358.3068058163324
324.1406276661971
293.6149967055829
266.2937732187099
241.8005137589125
219.8092195670449
200.0366888565783
182.2361667141387
166.1920502274366
151.7154558525312
138.6404945176382
126.8211301746241
116.1285213673905
106.4487643156154
97.68097114791983
89.73562907272803
82.53319610467545
76.00289698411119
70.08168953808683
64.71337727779961
59.84784879748437
55.44042882697014
51.45132990038505
47.84519782384147
44.59074873816781
41.66050241691229
39.03059816637678
36.67238228055934
34.54973658699939
32.62516341864072
30.8599340983569
29.21137754450929
27.62973350776328
26.05625407653244
24.42695665934449
22.68683215498699
20.90457731546027
19.10696778735802
17.19419999040317
15.05362394642788
12.49894116447871
9.423462748896613
6.285209814379888
4.317400336686265
3.788588484456936
3.724400302226401
3.718692263282754
3.71814570455063
3.717995507421691
3.717865384243656
3.717727946728156
3.717581192821819
3.717424877077411
3.717258936366878
3.717083407470931
3.716898439297652
3.716704312700243
3.716501462859585
3.716290503980543
3.716072256342907
3.715847775885579
3.715618386683353
3.71538571687161
3.715151739304114
3.714918818383676
3.714689766366183
3.714467912812757
3.714257194622922
3.714062283860132
3.713888755113933
3.713743246428507
3.713633898447546
3.713572065106434
3.713567535989671
3.713648000404518
3.715608464397274
3.943384479236133
9.936976385150775
35.88567591305723
1142164.621417648
209370.8236452673
72962.33268192671
34987.00668405721
20122.06016497349
13021.74626524378
9170.140632131801
6882.3404494411
5418.368652664321
4415.997050156817
3686.508873712755
3128.299605244478
2685.046001772432
2323.937335936234
2023.73971099748
1770.126754277201
1553.632398474974
1367.589626746367
1207.035146949672
1068.104257008241
947.6737268996009
843.1046523384041
751.9825530440669
672.2166194283421
602.1467559124779
540.4096476488858
485.8634357854456
437.5466732987969
394.6458204029032
356.4693936630827
322.427183556143
292.0134349835453
264.7931522399881
240.3908863975216
218.4815085480413
198.7825813677265
181.0480241823638
165.0628301868908
150.6386435812865
137.6100426618229
125.8314049731695
115.1742543660248
105.5250086540402
96.78306162801712
88.85914527646658
81.67392783135715
75.1568112088402
69.24489793610476
63.88210308428942
59.01839132430342
54.60912324215843
50.61449874399351
46.99908902924707
43.73145261645032
40.78383578969162
38.13196433726724
35.75492168564684
33.62596602964113
31.71181902791253
29.97925622932642
28.39325335405539
26.91397263949622
25.49334796801794
24.07335325307194
22.5905378592674
20.99063911932373
19.34587923413634
17.65306246743923
15.81283394655238
13.69858807007699
11.06415979925536
7.887502781482318
5.042619759180362
3.782670412351004
3.568415363631498
3.548606104727417
3.546997513244856
3.546775140792685
3.546640767533439
3.546503441641585
3.546357148033173
3.54620140709536
3.546036141607546
3.545861385510749
3.545677284839379
3.545484116906889
3.545282312601446
3.545072481051434
3.544855436687451
3.544632228881992
3.544404174545486
3.544172894253778
3.543940353178099
3.54370890830177
3.543481365340277
3.543261049064899
3.543051892362268
3.542858563706036
3.542686656461265
3.542542819800165
3.542435021423271
3.542375152502673
3.542372952187861
3.542455898792138
3.545102912513716
3.84628884370421
10.47634187784054
35.85003464891265
1142164.481515191
209370.0816000338
72960.27144152635
34982.99789551114
20115.74059765373
13013.12427251313
9159.631261996114
6870.686920506173
5406.435883350432
4404.520703919972
3675.940141790083
3118.803915774541
2676.594030130399
2316.466328432784
2017.177909830891
1764.364893449053
1548.555115041381
1363.089223432899
1203.017320268263
1064.48934168165
944.3962742175599
840.113748750498
749.2448115324703
669.7062801779616
599.8388930396879
538.2828224396116
483.8990188323955
435.7283303265057
392.9591135567733
354.901472068162
320.9665399051464
290.6497113742987
263.5169830248376
239.1937690976434
217.3556962725827
197.7209919048569
180.0441621771374
164.1107197223093
149.7327691310812
136.7452968543977
125.0030419505008
114.3778477637044
104.7564134047304
96.0383789102315
88.13469000245624
80.96619810108037
74.4624591484466
68.56070128481477
63.20493678117906
58.34519815569559
53.93688230723757
49.9401900269995
46.31965164508877
43.04373317104701
40.08452158505771
37.41749375446386
35.02138207469459
32.8759742706542
30.95542914494819
29.22959507224879
27.66820439507993
26.23843447941656
24.90157374022207
23.60947362445011
22.3035822944681
20.92158381317847
19.41446784201911
17.86319454786078
16.24606346821041
14.43534884901748
12.24665383730848
9.418649278570188
6.212706617267018
4.044669703690221
3.46677789852094
3.403837749556955
3.398960154986
3.398520765011336
3.398373801184646
3.398236462037596
3.398090966112182
3.397936170895551
3.39777196392475
3.397598375899786
3.397415550379887
3.397223761354632
3.397023435347299
3.396815175967601
3.396599790883101
3.396378321391087
3.396152074980035
3.395922661470532
3.395692033997034
3.395462536291624
3.395236959760527
3.39501861469109
3.394811418673899
3.39462001770548
3.394449998247941
3.394308037444445
3.394201848729874
3.3941436711374
3.394143936807623
3.394229523046928
3.397738197183283
3.787426795763825
11.00729286415898
35.79215242915161
1142164.360740375
209369.4411923892
72958.49181196566
34979.53459594251
20110.27595687021
13005.65939867944
9150.517833400698
6860.562507286338
5396.04883506825
4394.513565623177
3666.712024221461
3110.505337347821
2669.203856407679
2309.932633226244
2011.439712173921
1759.327533357192
1544.118066277399
1359.158315195599
1199.509889168584
1061.335422288952
941.5383041028475
837.5069174737018
746.8598058830785
667.520543188556
597.8305843496311
536.4331677424997
482.1917135424467
434.1490873155792
391.4953124125296
353.5418870370771
319.7011260254845
289.4694340088625
262.4136800031932
238.1600375765913
216.3847985270153
196.8067757835334
179.1809930580247
163.2934215967311
148.9565730204536
136.0057951791818
124.2961477717872
113.6997580344202
104.1035755212182
95.40745996017193
87.5225481705254
80.36985572358536
73.8790769019736
67.98755294617564
62.63938389401219
57.78466375984311
53.37882258988365
49.38206226887774
45.75887603616925
42.4776447336305
39.51030615479546
36.83209793469383
34.42137991164348
32.25954973435604
30.32603416633993
28.59514551175987
27.03951504423733
25.63084921465203
24.33715082002941
23.11903554494364
21.92628879209061
20.69804667162922
19.37017420766398
17.94843154244614
16.47168199794076
14.87836582042808
13.02993906517895
10.64628158447831
7.557919560092292
4.673771485983647
3.462613972268334
3.283848901602268
3.269595376904075
3.268541810442977
3.26835919564558
3.268220815719197
3.268076277101621
3.267922650153284
3.267759731705142
3.267587547003148
3.26740623723498
3.267216073113916
3.267017476650231
3.266811045534189
3.266597579951888
3.266378112014384
3.266153938188677
3.265926655336086
3.265698201623437
3.265470903715427
3.265247533585242
3.265031380365235
3.264826339832601
3.264637024726743
3.2644689877058
3.264328957133681
3.264224365851534
3.264167522640335
3.264170427068723
3.264259296933024
3.268855816386071
3.764180062360157
11.52864686758373
35.72418184548589
1142164.254895648
209368.8801085814
72956.93210545936
34976.49773711987
20105.48070062092
12999.10253183006
9142.503198151891
6851.646701901594
5386.890136007361
4385.682163497258
3658.566622129315
3103.185538541816
2662.696405811439
2304.179500763657
2006.379394479812
1754.881687655052
1540.200472065518
1355.687090429831
1196.41263921616
1058.550608986847
939.0151624918736
835.2058696735427
744.754982342993
665.5920683809818
596.059207703711
534.802338307797
480.6870552328469
432.7580011093182
390.2066677849521
352.345782744636
318.588702143226
288.4327221749168
261.4454823561675
237.2538274303399
215.5346376833826
196.007244726723
178.4271312440343
162.5806757512301
148.2807518638426
135.3630293627442
123.6828540723461
113.1126070441584
103.5394622031079
94.86347653052815
86.99595882650198
79.85807275881839
73.37963774837343
67.49809764020176
62.15763238287525
57.30839232098179
52.90583840903536
48.91017486433875
45.28586365795204
42.00121298927252
39.02803472661545
36.34136904195042
33.91927862851654
31.74272080907719
29.79499268292107
28.05480497524815
26.49644998161824
25.09453422368412
23.82173768241653
22.6455823531957
21.52452242698172
20.40544164483326
19.22712948024729
17.9342352162473
16.57059976216883
15.13549910079931
13.52201911930328
11.52826875545535
8.809954648078588
5.625880019194105
3.632816132242894
3.195344081674637
3.156050405867501
3.1533531845705
3.153075663021585
3.152933263778564
3.152789665687486
3.152637333940828
3.152475838368369
3.152305192844912
3.152125536046415
3.151937135402025
3.151740408275113
3.151535946128192
3.151324541136697
3.151107215418868
3.150885253268449
3.15066023700183
3.150434087705374
3.150209112290529
3.149988059753104
3.149774192941522
3.149571381303407
3.14938420033414
3.149218141608803
3.14908000157423
3.148976965029509
3.148921064314933
3.148926832367802
3.149020136977826
3.155005118371164
3.775249529447865
12.04046981825401
35.65156244795218
1142164.160883571
209368.3818549179
72955.54673035054
34973.79928041543
20101.21745054358
12993.26890025864
9135.366456273357
6843.700627519253
5378.72265973164
4377.806795444911
3651.310613388704
3096.68070365659
2656.937122695103
2299.089871465986
2001.889381264471
1750.930054906594
1536.714578322688
1352.596183371681
1193.653388743756
1056.06880625005
936.7659076038118
833.1540975614421
742.8778435577951
663.8720444472267
594.4792835176606
533.3478711551041
479.3453149230351
431.5178215306361
389.0581764422512
351.2801911522396
317.5981411454462
287.5101107301048
260.5844214314732
236.4485129052802
214.7797877935497
195.2980387600035
177.7591570538592
161.9498842655377
147.6834172113874
134.7957135579779
123.1423754306494
112.5960116649399
103.0439979761726
94.38656920277798
86.5351897191793
79.4111577548302
72.94440717644183
67.07247666905072
61.73962149903974
56.89604739652342
52.49724976048545
48.50344454972806
44.87908003975456
41.59242128642359
38.61520186680328
35.92234059289131
33.49172495687497
31.30406902328184
29.34286319626311
27.59046855141262
26.02481743835384
24.62210909513568
23.35793865023511
22.20465210637136
21.12769226524327
20.08191475933476
19.01113031967518
17.85497442577969
16.59260188114724
15.26245626422225
13.82323230613751
12.12274047178319
9.825515319130412
6.732553220453043
4.052521825123938
3.158098288118606
3.057235832480922
3.05035590946859
3.04983850604984
3.049684685144095
3.049541752244453
3.049390775682194
3.049230776553688
3.049061743355903
3.048883811741156
3.048697245821808
3.048502458213368
3.048300033935749
3.048090756791369
3.047875638354348
3.047655949958129
3.047433258283077
3.047209465847544
3.046986857924669
3.046768158205375
3.046556599339037
3.046356020366487
3.046170960949508
3.046006826605458
3.045870482985951
3.045768957577814
3.045713608517984
3.045722533002603
3.045821984726126
3.053604453820853
3.820694064165437
12.54589491511859
35.57422293760317
1142164.076778921
209367.9361592834
72954.30716565212
34971.38378449703
20097.39883587258
12988.03920784763
9128.961577964752
6836.560333690643
5371.373755625721
4370.712437911448
3644.768515515918
3090.812852868632
2651.740757467953
2294.497777118191
1997.83898469812
1747.366372231015
1533.572072325474
1349.810880529175
1191.167932717608
1053.834033614058
934.7410556417785
831.3073372895259
741.1885590132741
662.3244875027932
593.0581047780468
532.0398663748045
478.1390094071259
430.4031542789364
388.026255791318
350.3231051590502
316.7088086439433
286.6821626868506
259.8121050389433
235.726612883705
214.1035608595679
194.6631582789741
177.161665671259
161.3861528712655
147.1501089887351
134.2897521611288
122.6609165435677
112.1364173451542
102.6038132943103
93.963500762644
86.12708569305359
79.01598909363665
72.56024966131358
66.69749345676092
61.37204577182923
56.53416465365616
52.13937916769405
48.14791856667397
44.52422123340011
41.23651472840332
38.25646065889703
35.55886058740403
33.12142208104236
30.92458762869311
28.95143404958911
27.18706841429078
25.61257251067716
24.20525831215627
22.94274314355919
21.80081303763275
20.75027116248479
19.75306498284683
18.75970976189141
17.71213610005178
16.55461429837399
15.31778764434749
14.00543815888735
12.50844993016353
10.57701267815971
7.808284605983619
4.730641579124671
3.210868087989671
2.974689765017455
2.957667634354396
2.956569854933712
2.956387290571244
2.956244260286934
2.956094642704345
2.955936174331016
2.955768786759438
2.955592611379746
2.955407908915532
2.955215087147827
2.955014724494613
2.954807596126305
2.954594702686598
2.954377302001393
2.954156944365082
2.953935512681393
2.953715269217262
2.953498910907683
2.953289637474012
2.953091253070894
2.952908266619797
2.952745978243749
2.95261130227531
2.952511255299114
2.952456084242837
2.952468529444968
2.952576516031612
2.96272587305471
3.901370901905175
13.04476034455758
35.49273594249648
1142164.000871244
209367.5339500811
72953.18825765658
34969.20251801582
20093.94849797913
12983.31015615944
9123.164034833828