/*--------------------------------*- C++ -*----------------------------------*\
| =========                 |                                                 |
| \\      /  F ield         | OpenFOAM: The Open Source CFD Toolbox           |
|  \\    /   O peration     | Version:  v1812                                 |
|   \\  /    A nd           | Web:      www.OpenFOAM.com                      |
|    \\/     M anipulation  |                                                 |
\*---------------------------------------------------------------------------*/
FoamFile
{
    version     2.0;
    format      ascii;
    class       volScalarField;
    location    "1000";
    object      p;
}
// * * * * * * * * * * * * * * * * * * * * * * * * * * * * * * * * * * * * * //

dimensions      [0 2 -2 0 0 0 0];


internalField   nonuniform List<scalar> 
10947
(
0.06068559466933223
0.06068538537027906
0.06068515961406525
0.06068494722199486
0.06068475859242714
0.06068461847675834
0.06068456094232012
0.06068461369837682
0.0606847857412367
0.0606850606908215
0.06068539996365142
0.06068577402697522
0.06068618691671258
0.0606866495371973
0.06068715958108467
0.06068771044546179
0.06068829452335125
0.06068890411813397
0.06068953330728526
0.06069017663510739
0.06069082732512718
0.06069147777104016
0.06069211990658378
0.06069274524386269
0.06069334480974053
0.06069390905705407
0.06069442776557794
0.06069488993102988
0.06069528364357474
0.06069559596495251
0.06069581281344221
0.06069591891986661
0.06069589803817974
0.06069573378992232
0.06069541173253555
0.06069492292892992
0.06069426648307229
0.06069344041257932
0.06069240429262219
0.06069103416328377
0.0606892081896821
0.06068691798913939
0.0606841749228571
0.0606809450634877
0.06067719746541405
0.06067291580044896
0.06066809238531456
0.06066272108381587
0.06065679169400552
0.06065028622347603
0.0606431778495063
0.06063543030193453
0.06062699242945434
0.06061778648580869
0.06060771247151812
0.06059667382622604
0.06058458152098706
0.06057134359019661
0.06055686565009701
0.06054105332796006
0.06052381381850674
0.06050505625411778
0.06048468900329793
0.06046261249479432
0.06043871103022744
0.0604128508813042
0.06038488649017804
0.06035466639977795
0.06032203316303196
0.06028682184947175
0.060248861013688
0.06020797420727959
0.06016398102997223
0.06011669846179424
0.06006594273788484
0.06001153166930067
0.05995328744125136
0.05989103998129046
0.05982463097404654
0.05975391859496535
0.05967878303982759
0.05959913292869591
0.05951491266284187
0.05942611081247509
0.05933276961254644
0.05923499564495485
0.0591329717906912
0.05902697054860122
0.05891736884473629
0.05880466450658187
0.0586894946624275
0.05857265646649491
0.05845513077138784
0.05833810970875089
0.05822302965143871
0.05811161179693122
0.05800591375597357
0.05790839724651834
0.05782201956676213
0.05775036035709075
0.05769780142016118
0.0576697897616737
0.05767323121297985
0.05771703782003394
0.05781237315237017
0.05797403787451592
0.05824803042935906
0.05885296881670837
0.05454454344236921
0.05454456067323293
0.05454458036184448
0.05454459950176212
0.05454461907010434
0.05454464091411877
0.05454466752854113
0.05454470222867042
0.05454474879155762
0.05454481088597659
0.05454489199147009
0.05454499550528601
0.05454512322318005
0.05454527572325415
0.05454545606857299
0.0545456693866224
0.05454592032046617
0.05454621312796764
0.05454655212454924
0.05454694165715375
0.05454738580584241
0.05454788812534674
0.05454845226040796
0.05454908240324252
0.05454978294152824
0.05455055837950148
0.0545514133781756
0.05455235280223186
0.05455338175877033
0.0545545056378097
0.05455573016140841
0.05455706144600088
0.0545585060783677
0.05456007118723293
0.05456176444605228
0.05456359387280681
0.05456556728372296
0.05456769152842639
0.05456997230180183
0.05457241549508079
0.05457502966627623
0.05457782443729482
0.05458080963860108
0.05458399768298863
0.05458740241150208
0.05459103572775978
0.05459490424894532
0.05459901198378911
0.05460337973561299
0.05460807846786716
0.05461323213245072
0.05461892581273644
0.05462504405490666
0.05463133094206232
0.05463778457890421
0.05464471652861329
0.05465237915635561
0.05466086716469499
0.05467019885069749
0.05468037155083924
0.05469140373776589
0.05470332220894952
0.05471615370803706
0.05472993839731993
0.0547447432865533
0.05476066163588904
0.05477779398524397
0.05479622578610752
0.05481602776578899
0.05483726862633139
0.05486001632664565
0.05488433446455503
0.05491028028516144
0.05493790290406072
0.05496724097822412
0.05499832001056941
0.05503114936663224
0.05506571902237946
0.05510199607920356
0.05513992110923643
0.055179404429674
0.05522032244325977
0.05526251422632859
0.05530577859654821
0.05534987194888561
0.05539450720594361
0.05543935428521108
0.05548404253379564
0.05552816561261543
0.05557128931478061
0.0556129627613525
0.05565273331095192
0.05569016532042995
0.05572486256488923
0.05575649361399282
0.055784818686083
0.055809715326412
0.05583119847021573
0.05584942776848748
0.05586469052959736
0.05587733783082998
0.055887631086391
0.05589549393418105
0.05590050424951672
0.05590112912450716
0.05587820272127938
0.0557571874743461
0.05577844554688754
0.0529696917501391
0.05296969629825066
0.05296970157871474
0.05296970678819082
0.05296971206794433
0.05296971769463949
0.05296972398621575
0.05296973135077635
0.05296974027679038
0.0529697512801563
0.05296976483667708
0.05296978128992009
0.05296980067938539
0.05296982307627107
0.05296984910972149
0.0529698798221104
0.05296991634413286
0.05296995983852382
0.05297001155161988
0.05297007251435746
0.05297014311514191
0.05297022380409034
0.05297031615322611
0.05297042240663753
0.0529705449496136
0.05297068649807683
0.05297085022321499
0.05297103979477975
0.05297125940452105
0.05297151378553862
0.05297180822045216
0.05297214852888323
0.05297254102138575
0.0529729924003226
0.0529735096112999
0.05297409976373187
0.05297477026448905
0.05297552814488974
0.05297637417762572
0.0529772930896811
0.05297826508766095
0.05297929086657804
0.05298038508640266
0.0529815577853853
0.05298281193758694
0.05298414385160609
0.05298553783965811
0.05298697185806941
0.05298843058560544
0.05298990237795866
0.05299136283081721
0.05299275486108122
0.05299399862161939
0.05299506518467004
0.05299604412056632
0.05299708392641569
0.05299822315693228
0.05299923088373044
0.05299983683032216
0.05300016365981997
0.05300052299804293
0.05300101717567041
0.05300160842264177
0.05300227547340134
0.05300300865962353
0.05300379228976144
0.0530046300374001
0.05300556199717309
0.05300664534730529
0.05300792895911434
0.05300945617003579
0.05301127544742287
0.05301344347604509
0.05301602605484913
0.0530190991649963
0.05302274997123958
0.05302707770268585
0.05303219437841447
0.05303822528098089
0.05304530906771581
0.05305359738760433
0.05306325384471506
0.05307445212603909
0.0530873730929716
0.05310220062337169
0.05311911599022326
0.05313829057772856
0.05315987677227125
0.05318399692889546
0.05321073040800574
0.05324009880334814
0.05327204963775568
0.05330643897811697
0.05334301359543461
0.05338139344489056
0.05342105532899993
0.05346131859496363
0.05350133352304275
0.05354007294091103
0.05357632987954629
0.05360872914957358
0.05363572340282053
0.05365538536439813
0.05366576228242699
0.05367171230181243
0.05368541827908863
0.05359087543464804
0.05342185374237323
0.05203116240189368
0.05203116585645978
0.05203116987641947
0.05203117386066827
0.05203117792551437
0.05203118229818025
0.05203118725469484
0.05203119315961513
0.05203120044649164
0.05203120955795967
0.05203122088195047
0.05203123468437331
0.05203125099904386
0.05203126983609001
0.05203129146300408
0.05203131638999785
0.05203134519305772
0.05203137835452636
0.05203141634351484
0.0520314596441815
0.05203150870294913
0.05203156395453375
0.05203162570260148
0.05203169464700768
0.05203177199410455
0.0520318588168352
0.05203195625353134
0.05203206561815327
0.05203218843081887
0.05203232643774344
0.05203248163993731
0.05203265632704857
0.05203285311284796
0.05203307497222114
0.05203332528150948
0.05203360785596677
0.05203392694102546
0.05203428710423597
0.05203469334952327
0.05203515290903592
0.052035678466161
0.0520362859498796
0.05203699009625976
0.05203780462488714
0.05203873807866783
0.05203977362461569
0.052040876955191
0.05204204407522683
0.0520432980297072
0.05204464973658023
0.0520460819518631
0.05204756040410213
0.0520490557672155
0.0520505493480406
0.0520520213888515
0.05205342596669357
0.05205469456191047
0.0520558130153516
0.05205690379459586
0.05205807907461781
0.05205918454601126
0.0520599918227867
0.05206060597226463
0.05206125854033392
0.05206198915692049
0.05206275966051394
0.05206353899120542
0.05206429516193038
0.05206502178139429
0.05206573264290194
0.0520664341724851
0.05206712060113038
0.05206778039662398
0.05206839938160562
0.05206896117551839
0.05206944748247527
0.0520698384438538
0.0520701130906303
0.05207025001111031
0.05207022829152085
0.05207002877379923
0.05206963567112573
0.05206903857058353
0.05206823483197943
0.05206723235991809
0.05206605268082025
0.05206473419599895
0.05206333540558554
0.05206193780798751
0.05206064808109012
0.05205959905510744
0.05205894891001758
0.05205887799841079
0.05205958274119494
0.05206126621058979
0.05206412536110005
0.05206833548632338
0.05207403327440126
0.05208129976785163
0.0520901450151497
0.05210052167840352
0.05211244358841297
0.05212573769710086
0.0521376926540621
0.05214825298557328
0.05219934194344633
0.05220530744188515
0.05193750655155951
0.05104429830283195
0.05104430097365838
0.05104430408180106
0.05104430716206661
0.05104431030252191
0.05104431367599178
0.05104431749454207
0.05104432204432752
0.05104432767348722
0.05104433474605301
0.05104434359119233
0.05104435445438643
0.05104436743416376
0.05104438262428622
0.05104440022929559
0.05104442063552666
0.05104444436389486
0.05104447186091689
0.05104450355416986
0.05104453987499713
0.05104458115806228
0.05104462750761779
0.05104467896159612
0.051044736181759
0.0510448002075039
0.05104487180943449
0.05104495174829599
0.05104504088753088
0.05104514020621732
0.051045250801944
0.05104537390457957
0.05104551089614653
0.05104566333354912
0.05104583297410398
0.05104602180440502
0.05104623207269634
0.0510464663243338
0.05104672743924374
0.05104701867091011
0.05104734368874966
0.05104770662330783
0.05104811210444721
0.05104856522908625
0.05104907124157951
0.05104963510187219
0.05105026373106906
0.0510509766719723
0.05105180295417414
0.05105275826938774
0.05105382659647295
0.05105497980568267
0.05105621977705439
0.05105755682506953
0.05105897655216744
0.05106045067308479
0.05106194660273736
0.05106342998567236
0.05106486388330757
0.05106620637368836
0.05106742952378527
0.0510685627947601
0.05106969308037059
0.05107079648921036
0.05107173060223937
0.05107254115488494
0.05107337063173559
0.05107425991404924
0.0510752104356563
0.05107620888465567
0.05107725488600232
0.05107836465679136
0.05107955515880552
0.05108083817841831
0.05108221963354035
0.05108370297418963
0.05108529010535853
0.05108698110657107
0.05108877374383624
0.05109066286042739
0.05109263968116427
0.05109469105465433
0.05109679866504753
0.05109893826182994
0.05110107897818314
0.05110318283511888
0.05110520455871908
0.05110709186902263
0.05110878642748252
0.05111022564974096
0.05111134559361497
0.05111208510835774
0.05111239136835358
0.05111222680030832
0.05111157723712124
0.05111046088122449
0.05110893731798747
0.05110711548339982
0.05110515960217261
0.05110329121238656
0.05110177299170467
0.05110085768620583
0.05110093621985753
0.05110314169087105
0.0511057438099407
0.05109657132464301
0.05112522316210547
0.05118436803507354
0.05078459733862338
0.05002972843996909
0.05002973062454674
0.05002973316660909
0.05002973568511752
0.05002973825049263
0.05002974100080133
0.05002974410500234
0.05002974779324001
0.05002975234894941
0.05002975807226773
0.05002976523899974
0.05002977406382201
0.05002978465874684
0.05002979711903144
0.05002981158130103
0.05002982835249383
0.0500298478968708
0.05002987061450986
0.05002989689146844
0.05002992712229245
0.0500299615858688
0.05003000023981769
0.05003004310023251
0.05003009084122297
0.05003014433871692
0.05003020423259353
0.0500302711560368
0.05003034582477495
0.05003042904257539
0.05003052170010439
0.05003062478275914
0.05003073938270666
0.05003086671240038
0.0500310081196022
0.05003116510439687
0.05003133933847212
0.05003153268680399
0.05003174723182979
0.05003198529998822
0.05003224948987409
0.05003254270116311
0.05003286816519058
0.05003322947566879
0.05003363061802733
0.05003407600301987
0.05003457048692626
0.05003511922112535
0.05003572715087592
0.05003639950081876
0.05003714797509889
0.05003799927308179
0.05003897087224776
0.05004005229365033
0.05004123736673428
0.05004252235934971
0.05004388899642403
0.05004531481449818
0.05004677263343469
0.05004822628968646
0.05004962960347338
0.0500509352820488
0.0500521243460283
0.05005323104547487
0.0500543160523988
0.05005531917425061
0.05005615771563297
0.05005692512371028
0.05005770658215077
0.05005851279598843
0.05005935753338809
0.05006025999850362
0.0500612302961073
0.05006228103393909
0.05006342777746274
0.05006468224027466
0.0500660553602018
0.05006755878480331
0.05006920508421244
0.05007100776617184
0.05007298118930052
0.05007514038253285
0.05007750074831723
0.05008007761458816
0.05008288559596498
0.05008593772275384
0.05008924429851135
0.05009281145541247
0.05009663939406246
0.05010072032338062
0.05010503615868948
0.05010955609252062
0.05011423421980277
0.05011900746911081
0.0501237941525408
0.05012849347944619
0.05013298629784042
0.05013713695645853
0.05014079644679816
0.05014381126741186
0.05014603343856427
0.05014723126195741
0.05014699183884656
0.05014633015336845
0.05014717204770303
0.0501280509761258
0.05012450528134375
0.05023324347043547
0.04969004873904102
0.04909049311720877
0.04909049498022885
0.04909049714794115
0.04909049929500269
0.04909050148037574
0.04909050381948894
0.04909050645304637
0.04909050957393559
0.04909051342182021
0.04909051825270678
0.04909052430433218
0.04909053176702659
0.04909054075472826
0.04909055135449926
0.04909056365476715
0.0490905779058891
0.04909059452160245
0.04909061385510385
0.04909063624369167
0.04909066202830707
0.04909069143807392
0.04909072441841705
0.04909076102968354
0.04909080186146506
0.04909084762187335
0.04909089887666982
0.04909095617906951
0.0490910201469618
0.04909109147216126
0.04909117092017535
0.04909125933580549
0.04909135765208437
0.04909146690031338
0.0490915882210309
0.04909172287623671
0.0490918722630934
0.04909203792923971
0.04909222158982036
0.04909242514629973
0.04909265070704791
0.04909290060955628
0.04909317744391833
0.04909348407687056
0.04909382367532345
0.04909419972803385
0.04909461606374467
0.04909507686379047
0.0490955866677177
0.04909615028334151
0.04909677241580191
0.04909745747264161
0.04909821264874498
0.04909905845354649
0.04910001221863717
0.04910107231367014
0.0491022358673303
0.04910349565273189
0.04910483389807771
0.04910622687142832
0.04910764388891019
0.04910904518597728
0.04911038365192272
0.0491116206285868
0.04911274391719864
0.04911375522822956
0.04911467596622502
0.04911551510731887
0.04911626738840066
0.04911695281295263
0.04911760208808887
0.04911826669907152
0.04911898612518561
0.04911975586432984
0.04912058157075919
0.04912147482739213
0.0491224429057164
0.04912349215689542
0.0491246293015629
0.04912586161635798
0.04912719701765649
0.04912864412846372
0.04913021234011938
0.04913191186030209
0.04913375373055023
0.04913574978723489
0.04913791252713843
0.04914025482262165
0.04914278941185785
0.04914552806771257
0.04914848032672977
0.04915165164141973
0.04915504081057442
0.04915863655058052
0.04916241310551038
0.04916632489241312
0.0491703003719717
0.04917423512578242
0.04917798284880859
0.0491813499881701
0.04918412767708888
0.04918605614928279
0.0491862544857179
0.04918457348739064
0.04918756264800651
0.04917149438175291
0.04913981843486241
0.04931132466044146
0.04862498585884619
0.04825195075023815
0.04825195238280038
0.0482519542823212
0.04825195616346296
0.04825195807713122
0.04825196012280421
0.04825196242126584
0.04825196513889621
0.04825196848390528
0.04825197268026273
0.04825197793768981
0.0482519844278029
0.04825199226326065
0.04825200152329447
0.04825201226381037
0.04825202469512267
0.04825203919101399
0.04825205606693162
0.04825207562051336
0.04825209815377952
0.04825212387738068
0.04825215275939886
0.04825218484276387
0.04825222061251744
0.04825226069047574
0.0482523055912323
0.04825235580477643
0.04825241187389563
0.04825247440675715
0.04825254407678606
0.04825262162695564
0.04825270787726332
0.04825280373322825
0.04825291019508521
0.04825302836791528
0.04825315947289412
0.04825330485976015
0.04825346602058253
0.048253644604893
0.04825384243620547
0.04825406152987888
0.04825430411216676
0.04825457264013693
0.04825486982189079
0.0482551986360654
0.04825556234892618
0.04825596452713189
0.04825640904614142
0.04825690009535791
0.04825744216033313
0.04825803989290254
0.04825869776405652
0.0482594199282312
0.04826021274504986
0.04826109277642322
0.04826207736014589
0.04826316795148845
0.04826435546191747
0.04826562679710968
0.04826696428809765
0.04826834266170209
0.04826972720099448
0.04827107441350124
0.04827233500446069
0.04827346718628858
0.04827446362154893
0.04827536427669558
0.04827621467558221
0.04827697605839108
0.0482776126230551
0.0482781704227285
0.04827874664662585
0.04827938099550082
0.04828005350746293
0.04828076939944299
0.04828153654983164
0.04828235834630288
0.04828323728935055
0.04828417560419872
0.04828517518923757
0.04828623752358528
0.04828736354768708
0.04828855352469991
0.04828980688553513
0.04829112205805464
0.04829249627995208
0.04829392539282659
0.04829540361029047
0.04829692324429267
0.04829847435940846
0.04830004430295408
0.0483016170285045
0.04830317209071554
0.04830468313090876
0.04830611561044615
0.04830742370904592
0.04830854658740218
0.04830940065886365
0.04830986009932311
0.04830978453477031
0.04830915874509993
0.04830727879942191
0.04830216991759605
0.04830387201213143
0.04829455858839454
0.04823084536879835
0.04847046781173278
0.04763530914564575
0.04749694640118422
0.04749694785759148
0.04749694955216297
0.04749695123020372
0.04749695293656699
0.04749695475875843
0.04749695680261383
0.0474969592144866
0.04749696217861017
0.04749696589431981
0.04749697054956073
0.04749697630090358
0.047496983258321
0.04749699149426476
0.04749700104202409
0.04749701208230921
0.04749702495672403
0.04749703995067161
0.04749705733038919
0.0474970773666677
0.04749710025401106
0.04749712597639577
0.04749715456781486
0.04749718643752024
0.04749722213777984
0.04749726214027203
0.04749730688538605
0.04749735685769043
0.0474974126004267
0.04749747471571823
0.04749754386792955
0.04749762079028363
0.04749770629245658
0.04749780126861452
0.0474979067064274
0.04749802369691754
0.04749815344537537
0.04749829728337637
0.04749845668195745
0.04749863326598991
0.04749882882974173
0.04749904535355391
0.04749928502144903
0.04749955023934091
0.04749984365329318
0.04750016816690857
0.04750052695637259
0.04750092348081242
0.04750136148649223
0.04750184500665321
0.04750237835375619
0.04750296604368871
0.04750361249400407
0.04750432167905357
0.0475050984959817
0.04750595494114061
0.04750690846601344
0.047507963043298
0.04750910990194804
0.04751034029997807
0.04751164141236655
0.04751299230793993
0.04751436176676417
0.04751570725336727
0.04751697519512484
0.04751811124250459
0.04751909825245233
0.04751999356723775
0.04752088149937653
0.0475216761546524
0.04752228070612851
0.04752279041800544
0.04752335508243649
0.04752397657582049
0.04752463223381405
0.04752533046656
0.04752607634959696
0.04752687181250775
0.04752771818284417
0.04752861628946489
0.04752956632642679
0.04753056766607004
0.04753161862558129
0.04753271618461623
0.04753385564591305
0.04753503023109294
0.04753623060437998
0.04753744431786038
0.04753865517333116
0.04753984249715325
0.04754098032454536
0.04754203648704034
0.04754297159216557
0.04754373786158288
0.04754427767021766
0.0475445215972395
0.04754438719154966
0.04754377839404346
0.04754256066194505
0.04754053516598731
0.04753776415471621
0.04753412085554035
0.04752560779950459
0.04752311789459552
0.04752289455110747
0.047421824358864
0.0477319869856862
0.04674007271752067
0.04680561594011476
0.04680561725716694
0.04680561878960204
0.04680562030698793
0.04680562184946688
0.04680562349522662
0.04680562533850141
0.04680562751001484
0.04680563017513377
0.04680563351368922
0.04680563769619189
0.04680564286683234
0.04680564913231169
0.04680565655933289
0.04680566516499365
0.04680567510726732
0.04680568670116025
0.04680570020751553
0.04680571586721487
0.04680573392566082
0.04680575456339202
0.0468057777758342
0.0468058035916333
0.04680583236234692
0.04680586458370808
0.04680590069125928
0.04680594108520951
0.04680598620333493
0.04680603653668653
0.04680609262988513
0.04680615508405525
0.04680622456267574
0.04680630179842268
0.04680638760055082
0.046806482862973
0.04680658857318743
0.04680670582213572
0.04680683581505498
0.04680697988338239
0.04680713949773887
0.04680731628208059
0.04680751202884094
0.04680772871514208
0.04680796851972528
0.04680823384030611
0.04680852731076048
0.0468088518172275
0.04680921051165807
0.04680960682066538
0.0468100444478093
0.04681052736986002
0.04681105982361677
0.04681164623567768
0.04681229096764606
0.04681299799548546
0.04681377204977689
0.04681462364763665
0.04681556662054021
0.04681660474729943
0.04681773233278214
0.04681894199290042
0.04682022233870205
0.04682155436381932
0.04682290884609451
0.04682424398589557
0.04682550291081453
0.04682662546257145
0.04682760226070935
0.04682851493016697
0.04682937134093859
0.04683008645751806
0.04683061725436859
0.04683110647314213
0.04683168280193412
0.04683230140175746
0.04683295501210087
0.04683365259837129
0.04683439692801369
0.04683518936563141
0.04683603084398159
0.0468369217273211
0.04683786164914235
0.04683884930126359
0.04683988216939348
0.0468409562060951
0.04684206542712026
0.04684320141355321
0.04684435269857479
0.04684550401385609
0.04684663536672035
0.04684772091519606
0.04684872760296294
0.04684961351701175
0.0468503259570909
0.04685079912852576
0.04685095086552791
0.04685067922079258
0.0468498666579789
0.04684836651530629
0.0468458891354326
0.04684235133299072
0.04683845004211336
0.04682864170959682
0.04682122319766799
0.04683441503508251
0.04669363697900537
0.04707846931435503
0.04592500674622069
0.04616568784570031
0.04616568905061017
0.04616569045255735
0.04616569184064242
0.04616569325126342
0.04616569475521599
0.04616569643755072
0.04616569841656719
0.04616570084257815
0.04616570387970752
0.04616570768437057
0.04616571239051703
0.0461657181015206
0.04616572487933285
0.04616573272922597
0.04616574179134498
0.04616575235862243
0.04616576467173944
0.04616577895099178
0.04616579542109514
0.04616581425074556
0.04616583544368273
0.04616585902457105
0.04616588529988926
0.04616591471960737
0.04616594768899059
0.04616598457530521
0.04616602577818393
0.04616607174604594
0.04616612297653096
0.04616618001899312
0.04616624347979198
0.04616631402856315
0.04616639240498737
0.0461664794261934
0.0461665759949389
0.04616668310864887
0.04616680186937315
0.04616693349472289
0.0461670793298364
0.04616724086040612
0.04616741972676391
0.04616761773897012
0.04616783689277291
0.0461680793861882
0.04616834763628953
0.04616864429557856
0.04616897226696732
0.04616933471574627
0.04616973507586734
0.0461701770480967
0.04617066459365662
0.04617120193248121
0.04617179349559156
0.04617244355923797
0.04617315535237923
0.04617393165023079
0.04617478678935096
0.04617573489343971
0.04617677362109692
0.04617789718091495
0.04617909875609934
0.04618036739470698
0.04618168516992471
0.04618302592887435
0.04618435156769359
0.04618559873282087
0.04618667887470206
0.04618755384611531
0.04618843572399348
0.04618932500055639
0.04618997587485547
0.04619042106001364
0.04619091974115757
0.04619149483438521
0.04619210014728926
0.04619274293466626
0.04619342832507242
0.04619415768237801
0.04619493179552576
0.04619575090858542
0.04619661457672733
0.04619752147610271
0.0461984691618776
0.04619945377188487
0.04620046966280547
0.04620150896265477
0.0462025610193048
0.04620361171922205
0.04620464264364077
0.04620563002102251
0.04620654342125699
0.04620734411626076
0.04620798306263414
0.04620839856155184
0.04620851280890768
0.04620822543873178
0.04620741703084402
0.04620596715327038
0.04620357550077624
0.04619986731349911
0.04619644292157517
0.04618733017197302
0.04617439470274534
0.04620548602289871
0.04602410898299893
0.04648799096895392
0.0451723303312294
0.04557006298536272
0.04557006409855914
0.04557006539378654
0.04557006667612801
0.04557006797894891
0.04557006936705468
0.04557007091805983
0.04557007274014154
0.04557007497124204
0.04557007776255721
0.04557008125897066
0.04557008558576334
0.04557009084003629
0.04557009706929865
0.04557010427949874
0.04557011261180879
0.04557012233351482
0.04557013366408923
0.04557014680624335
0.04557016196797969
0.04557017930816574
0.04557019883674049
0.04557022057492901
0.04557024479338106
0.04557027190508421
0.04557030228990078
0.04557033628788038
0.04557037426732098
0.04557041664161457
0.04557046386975554
0.04557051645849122
0.04557057496715043
0.04557064001343986
0.04557071227970536
0.04557079251977588
0.04557088156652932
0.04557098034025796
0.0455710898578944
0.04557121124315851
0.04557134573768095
0.0455714947131448
0.04557165968446155
0.04557184232395953
0.04557204447650143
0.04557226817536038
0.04557251565855541
0.04557278938517428
0.04557309205096551
0.04557342660209061
0.04557379624523192
0.04557420445150652
0.04557465495281879
0.04557515173436864
0.04557569901965505
0.04557630116287327
0.04557696222713342
0.04557768554002394
0.04557847600485777
0.04557935086965689
0.04558031851423519
0.04558136932454827
0.04558249867359388
0.04558370157850119
0.04558496743744403
0.04558627725344282
0.04558760256409533
0.04558890076627296
0.04559009663483327
0.04559111692489758
0.04559201802962499
0.04559292264450284
0.0455937291846231
0.04559423623755407
0.04559464811377448
0.04559517356665699
0.04559574038634164
0.04559633665363944
0.04559697152818894
0.04559764689646624
0.04559836339153245
0.04559912116568462
0.04559991971286349
0.04560075769154376
0.04560163269973236
0.04560254099895323
0.04560347717658222
0.04560443373334121
0.04560540057945746
0.0456063644186107
0.04560730799323739
0.04560820915879376
0.04560903974599741
0.04560976413623569
0.04561033745215821
0.04561070358854974
0.04561079301836089
0.04561051511706757
0.04560975300595521
0.04560842032883128
0.04560630176626856
0.04560264216664184
0.04559976119848024
0.04559282808430647
0.04557322921970269
0.04562570707341551
0.04540293576469959
0.04594889580772377
0.04447485981080184
0.04501285879358225
0.04501285983084414
0.04501286103772213
0.04501286223253699
0.04501286344615835
0.04501286473845115
0.04501286618086472
0.04501286787309875
0.04501286994262244
0.04501287252968324
0.04501287576963924
0.04501287977992929
0.04501288464512763
0.04501289038090472
0.04501289701524798
0.04501290471895953
0.04501291372155424
0.04501292421635386
0.04501293639038798
0.04501295043817927
0.04501296651037782
0.0450129846217505
0.04501300479084866
0.04501302725936907
0.04501305240955003
0.0450130805994011
0.04501311214603806
0.04501314739155315
0.04501318672003229
0.04501323055814837
0.04501327937702167
0.04501333369667628
0.04501339409144241
0.04501346119579604
0.04501353571073994
0.04501361841086085
0.04501371015213892
0.04501381188057017
0.04501392464166345
0.04501404959087099
0.04501418800500332
0.04501434129465901
0.04501451101767245
0.04501469889353565
0.04501490681868198
0.04501513688242105
0.04501539138317389
0.04501567284446607
0.04501598402984837
0.04501632795543672
0.0450167078981077
0.04501712739740351
0.04501759025163968
0.04501810050853457
0.04501866241623884
0.04501928020466537
0.04501995768330079
0.04502069885835628
0.04502151353009973
0.04502241306232617
0.04502339896526825
0.0450244665188234
0.04502561051199404
0.04502682368793271
0.04502809405288531
0.04502940382478023
0.04503072562455875
0.04503200160918715
0.04503312143436583
0.04503401597071677
0.04503494057735811
0.04503590362424962
0.0450365634584091
0.04503694120037205
0.04503740618114986
0.04503795053907748
0.04503852037911259
0.04503912580100479
0.0450397706977133
0.04504045592894559
0.04504118195457382
0.04504194865416618
0.04504275517837664
0.04504359975405797
0.04504447943629796
0.04504538980445447
0.04504632459027456
0.04504727522275314
0.04504823027089978
0.04504917476065372
0.0450500893368837
0.0450509492416233
0.04505172305728985
0.04505237103785571
0.04505284315930132
0.045053078302618
0.04505299848868177
0.04505248812796642
0.04505147213473065
0.04504989444508711
0.04504660200586266
0.04504416329878173
0.04504074809021434
0.04501310660917133
0.04508950644695033
0.04482408711030068
0.04545089458289178
0.04383420018607777
0.04448803558200485
0.04448803655337977
0.04448803768360521
0.04448803880249953
0.04448803993878968
0.04448804114810875
0.04448804249663298
0.04448804407683372
0.04448804600721502
0.04448804841863515
0.04448805143808929
0.04448805517576802
0.04448805970613424
0.04448806502702325
0.0444880711821831
0.04448807835394691
0.04448808674134147
0.04448809651934034
0.04448810786262562
0.04448812095385376
0.04448813593610734
0.0444881528280316
0.04448817164671486
0.04448819260968203
0.04448821607201761
0.04448824237228736
0.04448827180774941
0.04448830469790756
0.04448834140159051
0.04448838231760884
0.04448842788640422
0.04448847859419409
0.04448853497804417
0.04448859763135724
0.04448866720987071
0.04448874443829321
0.04448883011765562
0.04448892513343704
0.04448903046452785
0.04448914719309281
0.04448927651539056
0.04448941975359336
0.04448957836862737
0.04448975397402055
0.04448994835069028
0.04449016346252371
0.04449040147248209
0.04449066475884262
0.04449095593089411
0.04449127784321303
0.04449163360681851
0.0444920265945254
0.04449246043853806
0.04449293902647618
0.04449346650784723
0.04449404724266846
0.04449468534408271
0.0444953836150617
0.04449614460409881
0.0444969873042724