/*--------------------------------*- C++ -*----------------------------------*\
| =========                 |                                                 |
| \\      /  F ield         | OpenFOAM: The Open Source CFD Toolbox           |
|  \\    /   O peration     | Version:  v1812                                 |
|   \\  /    A nd           | Web:      www.OpenFOAM.com                      |
|    \\/     M anipulation  |                                                 |
\*---------------------------------------------------------------------------*/
FoamFile
{
    version     2.0;
    format      ascii;
    class       surfaceScalarField;
    location    "1000";
    object      phi;
}
// * * * * * * * * * * * * * * * * * * * * * * * * * * * * * * * * * * * * * //

dimensions      [0 3 -1 0 0 0 0];
oriented        oriented;


internalField   nonuniform List<scalar> 
21676
(
1.574689235718224e-06
2.711566534254064e-08
3.10639374808691e-06
8.166817716352599e-08
4.604851395206445e-06
1.381341586625946e-07
6.078375878719239e-06
1.981054483676018e-07
7.5339901237396e-06
2.631258583312345e-07
8.977704342370609e-06
3.345483179764833e-07
1.041500384105468e-05
4.133275875982405e-07
1.185145681443953e-05
4.999033754863274e-07
1.32931708569906e-05
5.943553946582812e-07
1.474687300739714e-05
6.967843010781308e-07
1.621961310502683e-05
8.07693581638076e-07
1.771829916026234e-05
9.281635083262968e-07
1.924954696975119e-05
1.059543669226215e-06
2.081964929284894e-05
1.203341044821666e-06
2.243457192527858e-05
1.361201659278257e-06
2.410006985003703e-05
1.534800030950121e-06
2.582171327148222e-05
1.72593985784594e-06
2.760487659711874e-05
1.936602762534748e-06
2.945472868202598e-05
2.168959926116458e-06
3.137622977888398e-05
2.425379576735444e-06
3.337411569858531e-05
2.708455377291961e-06
3.545287427516135e-05
3.021031228311808e-06
3.761671439543592e-05
3.366227453030413e-06
3.986952706887096e-05
3.74746927474799e-06
4.221483810423965e-05
4.168517651026657e-06
4.465575190031249e-05
4.63350268372158e-06
4.719488587253319e-05
5.146959764484602e-06
4.983429515476562e-05
5.713868538213286e-06
5.257538726020885e-05
6.339694841566819e-06
5.541882658821436e-05
7.030435658027593e-06
5.836442892066183e-05
7.792667065550017e-06
6.141104658538311e-05
8.633594932263401e-06
6.455644626220209e-05
9.561107360161392e-06
6.779718440511076e-05
1.058382618407276e-05
7.112849115421342e-05
1.171115201892728e-05
7.454418250112451e-05
1.295329430508905e-05
7.803662740180212e-05
1.432127988730956e-05
8.159678307137708e-05
1.582695400739955e-05
8.521423710292661e-05
1.748304883845574e-05
8.887700592532833e-05
1.930350918859062e-05
9.257053065301173e-05
2.130438448131369e-05
9.62772892095099e-05
2.350330978350106e-05
9.997715147356397e-05
2.591886873494564e-05
0.000103647164636926
2.857127871266797e-05
0.0001072614246194397
3.148243039341791e-05
0.0001107910527805367
3.467591922795905e-05
0.0001142042618660258
3.817710513051636e-05
0.0001174664952111231
4.201320135184104e-05
0.0001205407320183381
4.621328493884396e-05
0.0001233884753905118
5.080780616678956e-05
0.00012597248760527
5.582705053724257e-05
0.0001282617427307417
6.129914925142664e-05
0.0001302360311080567
6.725067535462371e-05
0.0001318822328621264
7.371524472488975e-05
0.0001331854917100135
8.073890972904413e-05
0.0001341329280440297
8.836794002587298e-05
0.000134723536091816
9.664298683203922e-05
0.0001349706983025741
0.0001056068451190938
0.0001349037804676612
0.0001153057857246935
0.0001345681896574908
0.0001257915422597057
0.0001340222866144829
0.0001371249459524782
0.0001333298649500318
0.0001493808918137252
0.0001325486215929491
0.0001626529274161829
0.0001317166841891116
0.0001770558275524592
0.0001308410653044695
0.0001927243549429907
0.0001298993906471234
0.0002098007347151677
0.0001288643758191941
0.0002284127207854617
0.0001277252344861475
0.0002486775515901274
0.0001264813442673331
0.0002707306581855903
0.0001251288010189193
0.0002947338272347208
0.0001236599191421191
0.0003208633997326838
0.000122066742282938
0.0003493075067346372
0.0001203417081004258
0.0003802702720674106
0.0001184773129354983
0.0004139742892192034
0.0001164660996091087
0.0004506619063301104
0.0001143007908616319
0.0004905968309404197
0.0001119744139436842
0.0005340660445901759
0.0001094804283289389
0.0005813818744062618
0.0001068128694424443
0.0006328842357671246
0.0001039665067365775
0.0006889430768255262
0.0001009370129647512
0.0007499610443505405
9.77211409465655e-05
0.0008163763904757746
9.431690244290141e-05
0.0008886661434601174
9.072374166022227e-05
0.0009673495668678912
8.694269347215781e-05
0.001052991935472007
8.297651364756556e-05
0.001146208657007075
7.882976520145663e-05
0.001247669772227138
7.450884143782903e-05
0.001358104870643059
7.002190237562589e-05
0.001478308459439985
6.537869695421755e-05
0.001609145827397441
6.05902385747875e-05
0.001751559452653638
5.56682958257778e-05
0.001906576002421321
5.062465287420446e-05
0.002075313983621938
4.5470083608112e-05
0.002258992106134448
4.021296756336207e-05
0.002458938435511066
3.48574494204395e-05
0.002676600422807155
2.940099947722583e-05
0.002913555925705369
2.383115644650743e-05
0.003171525373690854
1.812110336246867e-05
0.003452385286842154
1.222350079944668e-05
0.003758183467319231
6.061586775573797e-06
0.004091156372078265
-4.842787342249137e-07
0.004453749608162555
-7.595615119769959e-06
0.004848640829336857
-1.554571472646852e-05
0.005278769519156758
-2.471801774058978e-05
0.005747346037762907
-3.627646331489236e-05
0.006258525986401671
-9.910869466774592e-05
0.006863707436687713
0.007304788199927185
4.980335299141755e-09
2.213533005034894e-08
1.959993559326555e-08
6.704857689809038e-08
4.382602269512633e-08
1.139080715419551e-07
7.78820061203289e-08
1.640494649363014e-07
1.221931387162904e-07
2.18814725793525e-07
1.77288988099997e-07
2.794524685643706e-07
2.436740658035516e-07
3.469425099395041e-07
3.217448194907704e-07
4.218326218204478e-07
4.118412530016847e-07
5.042589611396041e-07
5.144084312332266e-07
5.942171228306362e-07
6.302016753963489e-07
6.919003375258649e-07
7.604878459263731e-07
7.978773378089454e-07
9.069468960258034e-07
9.130846190993233e-07
1.07139211161662e-06
1.038895829274369e-06
1.255732821473079e-06
1.176860949409269e-06
1.462072599007206e-06
1.32846025343998e-06
1.692766403188323e-06
1.49524605364624e-06
1.950454502516379e-06
1.67891466320142e-06
2.23808268882702e-06
1.881331739826536e-06
2.558904173469729e-06
2.104558092049571e-06
2.916461356660614e-06
2.350898194068366e-06
3.314529433071623e-06
2.622963151922113e-06
3.757151199200998e-06
2.923605686884295e-06
4.248720422281947e-06
3.255900051673325e-06
4.794002198797466e-06
3.623235874520056e-06
5.398150793038782e-06
4.029354089488451e-06
6.066724131337131e-06
4.478386426164912e-06
6.805693895495214e-06
4.974898774068866e-06
7.621449982349837e-06
5.523938754732561e-06
8.520797786026509e-06
6.131087854363111e-06
9.510946422076575e-06
6.802518429506009e-06
1.059948549081382e-05
7.545055863554249e-06
1.179434679212124e-05
8.366246058881049e-06
1.310374464355942e-05
9.274428332619779e-06
1.453608288389265e-05
1.027881377859773e-05
1.609980791030301e-05
1.138956927868211e-05
1.780317974252041e-05
1.261790805511445e-05
1.965394486248681e-05
1.397618888745171e-05
2.165896605166597e-05
1.547802764928704e-05
2.382393929258605e-05
1.713853594765489e-05
2.615350309832047e-05
1.897482067554391e-05
2.865086434401078e-05
2.100594853781805e-05
3.13171246887833e-05
2.325260839016931e-05
3.41511105075871e-05
2.573729289389337e-05
3.714905958820029e-05
2.848448131279691e-05
4.030415327665204e-05
3.152082553949277e-05
4.36059092601113e-05
3.487534914703178e-05
4.703945829662504e-05
3.857965231533914e-05
5.058474345325214e-05
4.266799978215309e-05
5.421568250766651e-05
4.717686711235285e-05
5.789928608993186e-05
5.214344695490963e-05
6.159465961287075e-05
5.760377572845149e-05
6.525186808963052e-05
6.359346687771196e-05
6.881124066959016e-05
7.015587214484486e-05
7.220396700136758e-05
7.734618339716902e-05
7.53556886689248e-05
8.521621835817551e-05
7.819591545896743e-05
9.38027600417121e-05
8.06685645909597e-05
0.000103134195986768
8.272305466000811e-05
0.00011325129565516
8.430750873029546e-05
0.0001242070881888339
8.539032750589216e-05
0.0001360421271760933
8.598343317776612e-05
0.0001487877861403552
8.615394934120255e-05
0.0001624824112506725
8.602194972963791e-05
0.0001771878271604924
8.573360444567141e-05
0.000193012700222712
8.54132110274491e-05
0.0002101211281275111
8.511803448114062e-05
0.0002287078973257465
8.483411406091023e-05
0.0002489614720022374
8.453392174773134e-05
0.0002710308504898559
8.421253376965333e-05
0.0002950552152019912
8.3871047872013e-05
0.0003212048856188372
8.350665671437896e-05
0.0003496718978793104
8.311497445871448e-05
0.0003806619543082501
8.269115956494619e-05
0.0004143981040965362
8.22295743301703e-05
0.0004511234915473712
8.172357289161025e-05
0.0004911028323593566
8.116540573814665e-05
0.0005346242117213023
8.054610855670965e-05
0.0005820011715635567
7.985538210814004e-05
0.0006335749621890919
7.908147555288456e-05
0.0006897169833513483
7.821107748890355e-05
0.0007508314423823236
7.722921991274774e-05
0.00081735824801663
7.611920215259429e-05
0.0008897761611816868
7.48625421877601e-05
0.0009686062267905593
7.34389641302098e-05
0.001054415513483283
7.182643025287742e-05
0.001147821190834049
7.000122565158529e-05
0.001249494976773596
6.793810188374783e-05
0.001360167994351372
6.561048282223197e-05
0.001480636078436784
6.299073103452316e-05
0.001611765579114925
6.005046590404012e-05
0.001754499717708192
5.676091528353052e-05
0.001909865552959543
5.309327077973784e-05
0.002078981628036927
4.901900340282373e-05
0.002263066373415687
4.451008272404224e-05
0.002463447356086882
3.953903173645498e-05
0.002681571473684165
3.40787466194136e-05
0.002919016210703881
2.810202485972983e-05
0.003177502095323811
2.158079449958397e-05
0.003458906517066904
1.448516703904487e-05
0.003765279094635597
6.782739964126791e-06
0.004098858798999774
-1.560162217482874e-06
0.004462092510181728
-1.057778871224115e-05
0.004857658455660128
-2.029803789585568e-05
0.005288489768158973
-3.061260841439781e-05
0.005757660608085885
-4.206464679951339e-05
0.006269978024528721
-9.298172800473347e-05
0.006914624517665625
0.007211806471911472
1.112664594560914e-09
2.102266544289651e-08
4.486287456010659e-09
6.367495402177598e-08
1.022947324914628e-08
1.081648857102471e-07
1.852248767412678e-08
1.557564505208314e-07
2.9606364077604e-08
2.077308493495625e-07
4.374968213515918e-08
2.653091505411333e-07
6.118714902992365e-08
3.295050430150982e-07
8.205306286040225e-08
4.009667080433917e-07
1.063632117507023e-07
4.799488122829356e-07
1.340723825732933e-07
5.665079519648296e-07
1.651640079695576e-07
6.608087121256414e-07
1.997121357501649e-07
7.633292100417797e-07
2.37901558324204e-07
8.748951965152236e-07
2.800455513344828e-07
9.967518362751334e-07
3.265442030379787e-07
1.130362297690843e-06
3.778593264151398e-07
1.277145130058969e-06
4.345503973545148e-07
1.438554982678078e-06
4.972916442303998e-07
1.616173416348001e-06
5.668878225323593e-07
1.811735561500228e-06
6.44290224532032e-07
2.027155690056495e-06
7.306066625435521e-07
2.264581756042115e-06
8.270791827358147e-07
2.526490631735197e-06
9.350548380782623e-07
2.815630031550883e-06
1.056040836196805e-06
3.134914053565867e-06
1.191784043105907e-06
3.487492667599727e-06
1.344309648103625e-06
3.876828484484071e-06
1.515964196967169e-06
4.306731877301088e-06
1.709463272325356e-06
4.781399698716919e-06
1.927943982400445e-06
5.305458044663071e-06
2.175022245482114e-06
5.884009591283351e-06
2.454854599853391e-06
6.522686075122903e-06
2.772203892583107e-06
7.227706570849766e-06
3.132507659863088e-06
8.005942291583895e-06
3.54194727948476e-06
8.864988712989534e-06
4.007515088989538e-06
9.813245969088644e-06
4.537075817860206e-06
1.086000854980658e-05
5.139418315086216e-06
1.201556555787874e-05
5.824294240685358e-06
1.329131296186231e-05
6.6024422722181e-06
1.469987961774281e-05
7.485609259465441e-06
1.62553689604086e-05
8.486590240941716e-06
1.797383969407007e-05
9.619215493800364e-06
1.987332328495334e-05
1.08982357248354e-05
2.197358815912505e-05
1.233914858647383e-05
2.429638003228326e-05
1.395795564988006e-05
2.686567424937277e-05
1.577084728346174e-05
2.970793390587493e-05
1.779280115369755e-05
3.285339527677627e-05
2.003618251897731e-05
3.633627095003825e-05
2.251057928142317e-05
4.019360301968033e-05
2.522199412587405e-05
4.446545226785521e-05
2.817040353906536e-05
4.919503754167357e-05
3.134523321907542e-05
5.442894604838671e-05
3.472106296635327e-05
6.021763713037894e-05
3.826080313302819e-05
6.661613197807655e-05
4.19235389546766e-05
7.368344757544355e-05
4.566093056358347e-05
8.147882674910209e-05
4.94072962697382e-05
9.005639433535715e-05
5.307671141861588e-05
9.94647808376457e-05
5.656606079439307e-05
0.0001097619462789528
5.976532720548866e-05
0.0001210078217772424
6.256932733444907e-05
0.0001332381270462975
6.486937814786879e-05
0.0001464877353258335
6.655204516731529e-05
0.0001607997442293715
6.754781853601898e-05
0.0001761920537888263
6.78924377027907e-05
0.0001926680810519569
6.774728406247008e-05
0.0002102662817614425
6.734371408096819e-05
0.0002291114672994393
6.686918249540301e-05
0.0002494360035777977
6.638486526253428e-05
0.0002715151677110026
6.58692869847843e-05
0.000295570793465965
6.530884203295767e-05
0.0003217653305552378
6.470248066736011e-05
0.0003502782592277703
6.4048066432181e-05
0.0003813163685248293
6.334252960643206e-05
0.0004151036409013226
6.258284992717697e-05
0.0004518831712028149
6.176595128417593e-05
0.0004919197309762862
6.088862896508405e-05
0.0005355015340114462
5.99475344406893e-05
0.0005829422660563914
5.893914150515746e-05
0.0006345833550896571
5.785969438954162e-05
0.000690796430428781
5.670513769980438e-05
0.000751985999030079
5.547102373961265e-05
0.0008185923619305469
5.415239287595392e-05
0.0008910947919950696
5.274362323609654e-05
0.0009700149963753197
5.123824606580037e-05
0.001055920890593493
4.962872494989007e-05
0.001149430711884566
4.790619845915556e-05
0.001251217503193135
4.606018883195336e-05
0.0013620140039014
4.407828293371516e-05
0.001482617984251286
4.194579643125343e-05
0.001613898065526803
3.964543772677859e-05
0.00175680007631468
3.715699344364768e-05
0.00191235399713718
3.445706610146184e-05
0.002081681555265674
3.151889419751312e-05
0.002266004545198036
2.8312295175875e-05
0.002466653954978311
2.480376592361748e-05
0.0026850800027976
2.09567727839901e-05
0.002922863203695693
1.673224853332516e-05
0.003181726619417591
1.208928102366891e-05
0.003463549484410508
6.98590441430098e-06
0.00377038247106967
1.380011512714979e-06
0.004104464691716918
-4.77088863163303e-06
0.004468243410132793
-1.151091797073902e-05
0.00486439848479734
-1.890013805650036e-05
0.005295878988032816
-2.69740924018685e-05
0.005765734562205016
-3.70352095546912e-05
0.006280039141419428
-7.842160736953524e-05
0.006956010915262587
0.007133384864530438
7.581807381727232e-10
2.026448469825955e-08
3.054759784441333e-09
6.137837499535177e-08
6.955845395571889e-09
1.042638000888827e-07
1.2571087543527e-08
1.50141208358725e-07
2.004790542076705e-08
2.00254031494767e-07
2.955373276165698e-08
2.558033231948257e-07
4.124234627021306e-08
3.178164294954704e-07
5.521457894971794e-08
3.869944753454123e-07
7.15015968773915e-08
4.63661794343578e-07
9.009032382498448e-08
5.479192250075928e-07
1.109728509387359e-07
6.399261850546197e-07
1.341850469866869e-07
7.401170139759009e-07
1.598211244765735e-07
8.4925911901748e-07
1.880534229173399e-07
9.685195378514241e-07
2.190920995990462e-07
1.099323621000137e-06
2.531541244171498e-07
1.243083105242375e-06
2.904891048184892e-07
1.401220002255654e-06
3.313852764973644e-07
1.575277244667471e-06
3.761742930432501e-07
1.766946544945364e-06
4.252429153751389e-07
1.978087067727449e-06
4.790652567632014e-07
2.210759414663267e-06
5.382497803395342e-07
2.467306108174179e-06
6.034606652254066e-07
2.750419146669798e-06
6.753795591589305e-07
3.062995159630021e-06
7.547772049810109e-07
3.408095021771322e-06
8.425269945326802e-07
3.789078694931493e-06
9.396210015452204e-07
4.209637870292112e-06
1.0471888472833e-06
4.673831852969121e-06
1.166519798580078e-06
5.186127093374195e-06
1.299088549192572e-06
5.751440840674184e-06
1.446585177464725e-06
6.375189446853257e-06
1.610949807306234e-06
7.063341940996382e-06
1.794412530187516e-06
7.822479568710192e-06
1.999539167265526e-06
8.659862075912623e-06
2.229283471957211e-06
9.58350166439717e-06
2.487046398247384e-06
1.060224562351453e-05
2.776743111670398e-06
1.172586884445182e-05
3.102878528252131e-06
1.296517754527926e-05
3.470632407203782e-06
1.43321257388067e-05
3.886055195231687e-06
1.583994617236094e-05
4.356597614304767e-06
1.750329727498655e-05
4.891494230515945e-06
1.93384266687362e-05
5.501729103977378e-06
2.136335328565435e-05
6.2000371568313e-06
2.359807197941137e-05
7.000927614196629e-06
2.606478379200159e-05
7.920705638627525e-06
2.878815588142308e-05
8.977556024187925e-06
3.179654489119929e-05
1.0191547459664e-05
3.5122279514532e-05
1.158437420665733e-05
3.88007762726736e-05
1.317858363933513e-05
4.287124283515668e-05
1.499524279594327e-05
4.73783783850587e-05
1.705171051679608e-05
5.237247832748878e-05
1.936112617975004e-05
5.790822146735758e-05
2.193223166139383e-05
6.40450264963831e-05
2.476837326455087e-05
7.084730597220366e-05
2.786256818528591e-05
7.838463182824292e-05
3.118726530246747e-05
8.673169721803543e-05
3.468493462770998e-05
9.596711151222449e-05
3.827793355999171e-05
0.0001061689473464183
4.187954111607756e-05
0.0001174062142207662
4.538609847949179e-05
0.0001297315696823575
4.867737331816533e-05
0.0001431964604864528
5.16253696885071e-05
0.0001578517478579598
5.408298775792409e-05
0.0001737344357178693
5.588141012516667e-05
0.0001908696586822386
5.690658550634036e-05
0.0002092411063764786
5.721201931135746e-05
0.0002288060334884491
5.704100977838123e-05
0.0002496070131026239
5.668914378324884e-05
0.0002718670336955055
5.631005030522882e-05
0.0002959498869312833
5.59074771795456e-05
0.0003221679036660779
5.546623022665726e-05
0.0003507195061641698
5.498286896095939e-05
0.0003817997297719944
5.445408770791854e-05
0.0004156324221340146
5.38756694579793e-05
0.0004524615894299315
5.324309842780436e-05
0.0004925523019812324
5.255152947815603e-05
0.0005361931029336944
5.179575333806936e-05
0.0005836980421664652
5.097019259318104e-05
0.0006354089158013337
5.006889897524834e-05
0.0006916977240103392
4.908555438126372e-05
0.0007529693435842901
4.801347647148663e-05
0.0008196644397967763
4.684562800055796e-05
0.0008922626404186082
4.557462838759854e-05
0.0009712859959364088
4.419276492573597e-05
0.001057302753998895
4.269199958349811e-05
0.001150931477165326
4.106396564167996e-05
0.001252845537068375
3.929994646274724e-05
0.001363778023008072
3.73908266798952e-05
0.001484527103955953
3.532700420790431e-05
0.001615961887914367
3.309825005089216e-05
0.001759028830380713
3.06935022686398e-05
0.001914758744821553
2.810058105999471e-05
0.002084274476369123
2.530581398495496e-05
0.002268799312160594
2.229356385159864e-05
0.002469666204991469
1.904565600164544e-05
0.002688327910519462
1.554070509754809e-05
0.00292636815446366
1.175334323517441e-05
0.003185513981135736
7.653348241067506e-06
0.003467649479252159
3.204611499525802e-06
0.003774831207650704
-1.636611144525902e-06
0.004109305914192548
-6.922993265299769e-06
0.00447352979207765
-1.271314405251042e-05
0.004870188635401326
-1.90694136637578e-05
0.005302235257452104
-2.602339144622313e-05
0.005772688539783326
-3.521823303153161e-05
0.006289233982773619
-6.743335637404517e-05
0.006988226038415477
0.007065951508144695
5.31622598790989e-10
1.973286210272824e-08
2.142039618028279e-09
5.976795796410543e-08
4.877726577945246e-09
1.015281131068538e-07
8.815845493729997e-09
1.462030894760121e-07
1.406078337554076e-08
1.950090936035536e-07
2.073311753310224e-08
2.491309890395446e-07
2.894803008881217e-08
3.096015169294801e-07
3.87887921692388e-08
3.771537132865064e-07
5.02930949475052e-08
4.521574915405287e-07
6.346700658624956e-08
5.347453133762387e-07
7.831752857530942e-08
6.250756630457789e-07
9.488058688964469e-08
7.23553955642429e-07
1.132332558466392e-07
8.309064500597688e-07
1.335181866154583e-07
9.482346070789161e-07
1.559091693614133e-07
1.076932638264256e-06
1.805797325048862e-07
1.218412542093763e-06
2.077266221880968e-07
1.374073112583297e-06
2.375744456686835e-07
1.545429421174445e-06
2.703776879841645e-07
1.734143302629617e-06
3.064244850219785e-07
1.94204027068375e-06
3.460471490660635e-07
2.171136750634425e-06
3.896497347975122e-07
2.423703522440359e-06
4.376792347417414e-07
2.702389646741807e-06
4.90603972084398e-07
3.010070422272364e-06
5.489438426959737e-07
3.349755151161948e-06
6.132768641327339e-07
3.724745673502903e-06
6.842466313172448e-07
4.138668103101782e-06
7.625710770955311e-07
4.595507407186285e-06
8.490527808598492e-07
5.099645389607689e-06
9.445911276820937e-07
5.655902493850491e-06
1.050196685457516e-06
6.269583889078974e-06
1.167008245592498e-06
6.9465303808809e-06
1.296313064028698e-06
7.693174750281093e-06
1.43957094646805e-06
8.516604193454075e-06
1.598442946273555e-06
9.424629664608617e-06
1.774825586244457e-06
1.04258629835546e-05
1.97089167857496e-06
1.15298027521249e-05
2.189138993358241e-06
1.274693023048409e-05
2.432448211340271e-06
1.408881652083171e-05
2.704151767638478e-06
1.556824261605731e-05
3.008114838614933e-06
1.719933420399561e-05
3.348827751905292e-06
1.899771375544923e-05
3.731508498838761e-06
2.098067253872048e-05
4.162215327564862e-06
2.316736515067455e-05
4.647969044351652e-06
2.557903007519205e-05
5.196884621626921e-06
2.823924030415987e-05
5.819240846063209e-06
3.117418866672297e-05
6.528515549551766e-06
3.441300481102784e-05
7.341187227982316e-06
3.798810459421894e-05
8.276581765764199e-06
4.193584829735568e-05
9.356837321307919e-06
4.629812282947434e-05
1.060682867666028e-05
5.11224869721165e-05
1.205258910637106e-05
5.646246103758907e-05
1.371890660535995e-05
6.237870899732246e-05
1.562809402463648e-05
6.893811855284176e-05
1.779882753169703e-05
7.621389832108269e-05
2.024415435986467e-05
8.428637038973971e-05
2.296792120169346e-05
9.324334467020649e-05
2.595741690824299e-05
0.0001031794516396231
2.917013265690901e-05
0.0001141934984717897
3.252050130944678e-05
0.0001263812010293884
3.589426634208427e-05
0.0001398226954532629
3.917478993452699e-05
0.0001545712242647625
4.224334000927954e-05
0.0001706658856419665
4.496605181910215e-05
0.0001881469468707209
4.714833790040233e-05
0.0002070588202925718
4.856832758617633e-05
0.0002273860437986453
4.915518836086151e-05
0.0002490201523215357
4.911489454819658e-05
0.0002719073274991834
4.881414898434038e-05
0.0002962506324833344
4.847257550331677e-05
0.0003225094771329996
4.811103445867569e-05
0.0003510810471928216
4.771703292815351e-05
0.0003821937312844546
4.728724482108415e-05
0.0004160622102207301
4.681876350892284e-05
0.0004529300707202828
4.630799954361264e-05
0.0004930630659218281
4.575101584960839e-05
0.0005367500866006803
4.51434953305155e-05
0.000584305562655948
4.448069083287383e-05
0.0006360717202664028
4.375738210689931e-05
0.0006924210327008761
4.296782937517295e-05
0.0007537588962772207
4.21057244438121e-05
0.0008205265446857267
4.116414047396845e-05
0.0008932042243422825
4.013548160929842e-05
0.0009723146547508031
3.901143404377652e-05
0.001058426801509854
3.77829203768287e-05
0.001152159990773013
3.644005921665987e-05
0.001254188398164292
3.497213181408144e-05
0.001365245950341272
3.336755689516082e-05
0.001486131678800072
3.161387360879245e-05
0.001617715571120173
2.969773043463621e-05
0.001760944973468345
2.760487485240952e-05
0.001916851600310992
2.532013451983384e-05
0.002086559216602556
2.282737578353323e-05
0.002271292070791141
2.010942008656145e-05
0.002472384160576001
1.714789407804916e-05
0.002691289436408685
1.392298574254242e-05
0.00292959306267309
1.041307958018211e-05
0.00318902388716516
6.5942704007533e-06
0.003471468288291915
2.439813707843304e-06
0.003778985664197363
-2.08057173881636e-06
0.004113826299486715
-7.002539930115427e-06
0.004478451760110681
-1.23657820341037e-05
0.004875551877341368
-1.819439547245616e-05
0.005308063870719386
-2.446303161411481e-05
0.005778957175743792
-3.302230406475312e-05
0.00629779325502236
-5.710286544700937e-05
0.007012306599633927
0.007008848642685785
3.976535706898208e-10
1.933520853237738e-08
1.602146768312342e-09
5.856346476854633e-08
3.648170194691787e-09
9.948208969072573e-08
6.593459090959127e-09
1.432578005615379e-07
1.051646263069097e-08
1.910860900429428e-07
1.550869171616653e-08
2.441387599558275e-07
2.165939801143255e-08
3.034508106380437e-07
2.903604761473248e-08
3.697770636726869e-07
3.76729889359354e-08
4.435205502849909e-07
4.75799138076533e-08
5.248383884999151e-07
5.876523534007995e-08
6.138903414940153e-07
7.125768114795516e-08
7.110615098158793e-07
8.511666182956412e-08
8.170474693944354e-07
1.004532936745107e-07
9.328979752157383e-07
1.174035712270229e-07
1.059982360707805e-06
1.361030727534962e-07
1.199713040579115e-06
1.567059535327625e-07
1.353470231799202e-06
1.793887797036864e-07
1.522746595010799e-06
2.043521668006712e-07
1.709179915547171e-06
2.318228028241067e-07
1.914569634670192e-06
2.620577916879145e-07
2.140901761772453e-06
2.953547694458341e-07
2.39040654468658e-06
3.320503809849645e-07
2.665694035199474e-06
3.725096792303537e-07
2.969611124006384e-06
4.171310585783973e-07
3.305133771847103e-06
4.663558599472461e-07
3.675520872120166e-06
5.206732952256113e-07
4.084350667817754e-06
5.806261055384304e-07
4.535554596875033e-06
6.468170759762848e-07
5.033454419182023e-06
7.199165556465783e-07
5.582803014193812e-06
8.006711682112456e-07
6.188829276494326e-06
8.899139396000744e-07
6.857287609482166e-06
9.885761192008934e-07
7.594512570685135e-06
1.097701031246946e-06
8.407479281423637e-06
1.218460364212475e-06
9.303870331630728e-06
1.352173390553128e-06
1.029214995721212e-05
1.500329707960532e-06
1.138164643470885e-05
1.664616208727354e-06
1.258264372970918e-05
1.846949114194928e-06
1.390648361535322e-05
2.049512059114063e-06
1.536567967112778e-05
2.274801481193793e-06
1.697404478191499e-05
2.525681217733445e-06
1.874683401891305e-05
2.805448618665603e-06
2.070090513777655e-05
3.117914541465713e-06
2.285489922786707e-05
3.467500076520351e-06
2.522944454012537e-05
3.859353409277838e-06
2.784738697139305e-05
4.299490782118262e-06
3.073405129387249e-05
4.794955423848901e-06
3.391754016927439e-05
5.353981668967604e-06
3.742907834907217e-05
5.986422296588527e-06
4.130340766971033e-05
6.705306950351741e-06
4.557923817568815e-05
7.528048121987921e-06
5.029974580045378e-05
8.476205903640094e-06
5.551430325588531e-05
9.575252856402218e-06
6.127966204449642e-05
1.085236716194115e-05
6.766100424722611e-05
1.233409280453362e-05
7.473217267839622e-05
1.404618911998554e-05
8.257427407416263e-05
1.601271181179562e-05
9.127682197822255e-05
1.825330375236908e-05
0.0001009388596988381
2.077733635231982e-05
0.000111669465871571
2.357233955450817e-05
0.0001235861978268589
2.658667044219881e-05
0.0001368083645650958
2.971655814132547e-05
0.0001514413365649579
3.282776109067262e-05
0.0001675546826917354
3.58008581820262e-05
0.0001851738497781616
3.852232774033682e-05
0.0002043373507324427
4.080129208559851e-05
0.0002251070794504809
4.236375249009855e-05
0.0002474576919124703
4.304430576987229e-05
0.0002712267742124381
4.302534799659058e-05
0.0002962695902463799
4.272836646270175e-05
0.0003228064586539234
4.239157597821848e-05
0.0003514178376620609
4.20331644253206e-05
0.0003825521428198087
4.164306569634168e-05
0.0004164523089303381
4.121823447121247e-05
0.0004533549019238708
4.075579728585479e-05
0.0004935255030833108
4.025240318698948e-05
0.0005372534806734823
3.97044017783768e-05
0.0005848535640358099
3.910781499152514e-05
0.0006366683070219132
3.845829960128777e-05
0.0006930705480568501
3.775110981353092e-05
0.0007544660860274817
3.698105471633963e-05
0.0008212965997422413
3.614244994905894e-05
0.0008940428290652167
3.522906288677993e-05
0.000973228041764933
3.423405064002156e-05
0.001059421813704302
3.314989033848273e-05
0.001153244151017936
3.196830145333306e-05
0.001255369986988162
3.068016037794262e-05
0.001366534091350661
2.927540813362107e-05
0.001487536430973216
2.774295290332925e-05
0.001619248026274131
2.607057004588249e-05
0.001762617356243857
2.424480322067382e-05
0.001918677367048631
2.225087101428008e-05
0.002088553148715541
2.007258374140827e-05
0.002273470357964671
1.769227456268922e-05
0.002474764469649345
1.509074765725667e-05
0.00269389096320269
1.224724299808174e-05
0.00293243656721479
9.139406186348572e-06
0.003192131723853484
5.743243674654324e-06
0.003474864450674422
2.033159707932853e-06
0.003782695748029368
-2.017755727532082e-06
0.004117877214782356
-6.439294886638538e-06
0.004482873299125356
-1.12672045366413e-05
0.004880379786842515
-1.651494499613513e-05
0.005313311611024243
-2.213145644621203e-05
0.005784573687030921
-3.010753572447275e-05
0.006305769334121645
-4.709919462826553e-05
0.007029298258393843
0.006961749448045336
3.124020719717233e-10
1.902280645582238e-08
1.258599078901513e-09
5.761726774027999e-08
2.865778108187757e-09
9.787491067464499e-08
5.179271571284511e-09
1.409443071184269e-07
8.260871023910301e-09
1.880044905907831e-07
1.218314861617712e-08
2.40216482383546e-07
1.701788495598964e-08
2.986160743134646e-07
2.282091215814204e-08
3.639740364492261e-07
2.962257512065677e-08
4.367188873345563e-07
3.743317829854037e-08
5.170277853189483e-07
4.626068274706885e-08
6.050628370644871e-07
5.612798887739062e-08
7.011942036687292e-07
6.708179093084381e-08
8.06093667352333e-07
7.921030290230185e-08
9.207694632360353e-07
9.26217640953571e-08
1.046570899486768e-06
1.074238347939646e-07
1.184910969878594e-06
1.237390525809824e-07
1.337155014012593e-06
1.41707907491957e-07
1.504777740103335e-06
1.614902145561852e-07
1.689397608480479e-06
1.832664222024963e-07
1.892793427011831e-06
2.072397686026268e-07
2.11692841538065e-06
2.336407120153398e-07
2.36400560127697e-06