/*--------------------------------*- C++ -*----------------------------------*\
| =========                 |                                                 |
| \\      /  F ield         | OpenFOAM: The Open Source CFD Toolbox           |
|  \\    /   O peration     | Version:  v1812                                 |
|   \\  /    A nd           | Web:      www.OpenFOAM.com                      |
|    \\/     M anipulation  |                                                 |
\*---------------------------------------------------------------------------*/
FoamFile
{
    version     2.0;
    format      ascii;
    class       volVectorField;
    location    "1000";
    object      U;
}
// * * * * * * * * * * * * * * * * * * * * * * * * * * * * * * * * * * * * * //

dimensions      [0 1 -1 0 0 0 0];


internalField   nonuniform List<vector> 
10947
(
(0.01995487022987572 2.071312555715747e-05 9.367495208409426e-20)
(0.05939314503105599 6.174890876454055e-05 2.60788525566671e-19)
(0.09866537072036262 0.0001016459549943565 4.50937385211315e-19)
(0.1380354349742633 0.0001406774517041964 6.444540266338493e-19)
(0.1776630638326999 0.0001791419219171451 8.639739257393637e-19)
(0.2174951725581257 0.0002172476284776841 1.109878019262376e-18)
(0.2571672786839052 0.0002551439125213376 1.357460669001766e-18)
(0.2960339533422701 0.0002929529998458954 1.579118010792768e-18)
(0.3333831047413525 0.0003308102851974415 1.886256653159901e-18)
(0.3686953941910089 0.00036885530358919 1.987070039765667e-18)
(0.4018103439730916 0.0004072224433993182 2.170261727676502e-18)
(0.4329296929947784 0.0004462088251923264 2.343895495184314e-18)
(0.4622753972611138 0.0004860383481932098 2.510759403791387e-18)
(0.4899555031814137 0.0005267887302836106 2.672365555629984e-18)
(0.5160877784306137 0.0005686296704056856 2.796948906767055e-18)
(0.540799003156946 0.0006117265863963581 2.9197849255394e-18)
(0.5642170224247894 0.000656224483025821 3.042029039210922e-18)
(0.5864707666661706 0.0007022703199551621 3.1648664478564e-18)
(0.6076803656990357 0.0007500076162146571 3.289600369639145e-18)
(0.6279497337560839 0.0007995642928638326 3.361648412892297e-18)
(0.6473710181489738 0.00085106782086492 3.438605931048045e-18)
(0.6660254899490364 0.0009046401673270218 3.467067720651061e-18)
(0.6839840774526229 0.0009603959411093739 3.445577398071387e-18)
(0.7013079835162743 0.001018441764650453 3.430575889541836e-18)
(0.7180493419076209 0.001078875280097972 3.371379280223848e-18)
(0.7342519163252592 0.001141783806097885 3.319489185374361e-18)
(0.7499518150370258 0.00120724276125476 3.223246193600097e-18)
(0.7651781799519288 0.001275313777703021 3.133396941495806e-18)
(0.7799538482226152 0.001346042611501936 3.050054189255442e-18)
(0.7942959635863062 0.001419456738640149 2.973418009656945e-18)
(0.8082165302159717 0.001495562624353013 2.90399108503677e-18)
(0.821722882849549 0.00157434266723866 2.84255725337073e-18)
(0.8348179663244457 0.001655751831429937 2.680399549667065e-18)
(0.847500163873126 0.001739714178367918 2.52302521488083e-18)
(0.8597622247909621 0.001826120511040769 2.371230313745165e-18)
(0.8715888155446303 0.001914830886018876 2.225290781144564e-18)
(0.8829528777772978 0.002005685557841516 2.085527414511672e-18)
(0.8938132619337101 0.002098504389441832 1.952949567419639e-18)
(0.9041208588015401 0.002192998467516418 1.578396479003175e-18)
(0.9138463578827186 0.002288584180684873 1.195726388300991e-18)
(0.9230435814458184 0.002385191653219047 7.999522008889877e-19)
(0.9317704312386155 0.002482640615152755 1.041460936946853e-19)
(0.9400325466745996 0.00258008178417188 -6.544927055779975e-19)
(0.9478409761630155 0.002677006602270099 -1.188171434655387e-18)
(0.9552068217782325 0.002772816612672458 -1.126931555046512e-18)
(0.9621364773387018 0.002866796460882251 -1.805503533918103e-18)
(0.9686284607701606 0.002958144741400013 -1.833595815720618e-18)
(0.9746713236118917 0.003045986675714034 -1.906487405111944e-18)
(0.9802426671618213 0.003129374388582879 -2.076161939108888e-18)
(0.9853098339085951 0.003207299081426897 -2.406255583305355e-18)
(0.9898329231115833 0.003278746917058283 -3.016874384465823e-18)
(0.993769967454029 0.003342818984451392 -4.13558529253175e-18)
(0.9970826695531175 0.003398874390820801 -4.180196074475749e-18)
(0.9997403767250268 0.003446399130561017 -4.828326309686065e-18)
(1.001723885395742 0.003484950684000902 -6.994610596431707e-18)
(1.003034851608487 0.003514346555944899 -4.618537437988531e-18)
(1.003708151757722 0.003534292247816507 -2.145993443164163e-18)
(1.00381983184694 0.003544875147211992 8.828230626890566e-19)
(1.003491727086457 0.003546625992282888 8.992658269001256e-18)
(1.002890367616586 0.003540533726301922 1.44218910331498e-17)
(1.002213047539579 0.003528093857761152 2.345604137407464e-17)
(1.001647385185 0.003511204670505822 1.051668776999599e-17)
(1.001308802465704 0.003491673752653666 2.568055497240237e-18)
(1.001201946769057 0.003470670134230363 2.004365841616255e-18)
(1.001238069977195 0.003448519894029349 1.36337276536233e-18)
(1.001299435465331 0.00342481294952292 7.223003379015547e-18)
(1.001319702721463 0.00339886423244422 1.967515794940995e-17)
(1.001305345056591 0.00337026090749825 1.670047211023573e-18)
(1.001284625387173 0.003338921321963655 -1.82844276198588e-17)
(1.001267411616664 0.003304793770940648 4.201757078985084e-18)
(1.001251042861117 0.003267717132198778 -2.162375939920034e-17)
(1.001233334067681 0.003227480103816214 -6.964680219718305e-18)
(1.001214142529394 0.0031838775281225 -3.331632839936775e-19)
(1.001193608417876 0.003136712540551936 -4.5670033992331e-17)
(1.001171710553478 0.003085789296744103 -5.248468631797498e-18)
(1.001148391945967 0.003030914367121768 2.866060766504326e-17)
(1.001123610755265 0.002971900677397966 5.483187672020519e-19)
(1.001097337377739 0.002908570910391468 2.484466459635796e-17)
(1.001069553302536 0.002840761017174045 -4.060041624582944e-18)
(1.001040253535916 0.00276832417213511 7.255907160397054e-18)
(1.001009449265926 0.002691135080206269 7.816364319249928e-17)
(1.000977170510163 0.002609094527511432 2.01915449024771e-17)
(1.000943468840628 0.002522134055215793 1.842697740276108e-17)
(1.000908420125156 0.002430220588752042 1.240320229168751e-17)
(1.000872127193646 0.002333360793402843 9.476155439600315e-18)
(1.000834722322232 0.002231604857386609 -4.8635981966002e-17)
(1.000796369417513 0.002125049325743281 3.24358590528737e-18)
(1.000757265775878 0.002013838519129624 -1.088567925697378e-16)
(1.000717643295209 0.001898163974074373 2.734068150012968e-17)
(1.00067776904082 0.001778261233562811 1.047705344100854e-16)
(1.000637945114355 0.00165440319670163 6.080807123243601e-17)
(1.000598507855122 0.001526889097560183 4.372638993627452e-17)
(1.000559826540264 0.001396028012124868 -5.102391620462842e-17)
(1.000522301948551 0.00126211555988559 2.375274736425828e-17)
(1.000486365452227 0.001125402120176385 6.268614591114652e-17)
(1.000452479736655 0.0009860503237885448 -1.682714834177152e-17)
(1.000421142891073 0.0008440786608908552 -9.716603832419086e-18)
(1.000392898578356 0.0006992866075343639 5.637801182944277e-18)
(1.000368356470332 0.0005511541034141455 7.073355606438431e-17)
(1.000348229661369 0.0003987012887022814 -5.116771533832972e-17)
(1.000333400734965 0.0002402824911266493 3.599404399705059e-17)
(1.00032503461053 7.332137443621054e-05 1.752490985129986e-17)
(1.000324745733824 -0.0001058441933000826 4.482553330448196e-17)
(1.000334808919567 -0.0003018733205165164 1.034718225491549e-16)
(1.000358120948621 -0.0005281753572509116 7.395977720584577e-17)
(1.000414560606192 -0.0008577227202353291 -7.398723486562191e-17)
(1.004017304010135 -0.001504925649756839 3.006553119497943e-17)
(0.9926608950139675 -0.001582754745985595 2.653436972797722e-17)
(0.01426209526043581 2.18332671856987e-08 -2.205009187392868e-20)
(0.04289250585436036 3.075215673939209e-07 -6.620675464105847e-20)
(0.07184387629440765 8.76868126890194e-07 -1.348112886864427e-19)
(0.1013160877758709 1.744486848636451e-06 -2.293917161317814e-19)
(0.1314550079426155 2.913055537434061e-06 -3.27634826111684e-19)
(0.1622749682983126 4.395560557446512e-06 -4.325304079152234e-19)
(0.1935604870640062 6.209562567901225e-06 -4.978593342211126e-19)
(0.2248217208944492 8.369810256998986e-06 -7.084849524806135e-19)
(0.2553951400070526 1.08856005953222e-05 -6.918881510051535e-19)
(0.2846652322794393 1.376521177535583e-05 -7.624699880010415e-19)
(0.3122454441696841 1.702572114127003e-05 -8.065304788121569e-19)
(0.338010104011475 2.069968392934115e-05 -8.058754631539309e-19)
(0.3620214507501212 2.482367187477926e-05 -8.061843149366526e-19)
(0.3845007882627522 2.945513831436068e-05 -8.080704353697003e-19)
(0.4056718827946822 3.465801894866495e-05 -7.778629514199348e-19)
(0.4256726773725948 4.04856594135397e-05 -7.523023810960473e-19)
(0.4446238438240745 4.700320435033541e-05 -7.318772731976428e-19)
(0.462642574459573 5.428594550408372e-05 -6.885950567215124e-19)
(0.4798414218155342 6.241768407164337e-05 -6.543620499083039e-19)
(0.4963260828143264 7.149124651096705e-05 -6.057637084367016e-19)
(0.5121943863712526 8.160809408283101e-05 -4.135692191034298e-19)
(0.5275358793104893 9.287700929792574e-05 -4.089594287821057e-19)
(0.5424319322342243 0.0001054154216593107 -3.043234752654321e-19)
(0.5569561487564333 0.0001193488753763336 -1.630504496873533e-19)
(0.5711749113305521 0.0001348139073052868 -3.087885106147992e-20)
(0.5851479634948472 0.00015195860301587 9.305963300253424e-20)
(0.5989289679074221 0.0001709429429535964 2.094495153616659e-19)
(0.6125660053576578 0.0001919391336508178 3.18792626018239e-19)
(0.6261019959034244 0.0002151318357695353 6.139301256903649e-19)
(0.639575031633313 0.0002407182021986735 5.599193338474245e-19)
(0.6530186132386868 0.0002689076723927058 6.05979956560198e-19)
(0.6664617817359919 0.0002999214692238611 6.450398618170249e-19)
(0.6799291347155901 0.000333991725715099 6.771707946085084e-19)
(0.6934407180940058 0.0003713601171232162 7.025620651947619e-19)
(0.7070117980900228 0.0004122757315467812 7.224997523829193e-19)
(0.7206525556343032 0.0004569915990864307 7.391663452309381e-19)
(0.7343678136441909 0.0005057588805014259 8.516425070361934e-19)
(0.7481569871823252 0.0005588178537337775 9.816287080034714e-19)
(0.762014457241729 0.00061638708160691 8.57876366129142e-19)
(0.7759303585270921 0.0006786545034411281 7.444154951862683e-19)
(0.7898912454326088 0.0007457780166301077 8.410505363269025e-19)
(0.8038796593980079 0.0008178732647841047 7.26341464427845e-19)
(0.8178730817297516 0.0008950078966933367 6.095828964382833e-19)
(0.8318433518809351 0.0009771841536541481 4.986100621326419e-19)
(0.8457565907358244 0.001064331209994829 4.048713624944966e-19)
(0.8595741085652302 0.001156291981635338 -1.762251871126482e-19)
(0.8732548667316846 0.001252798953968604 -1.974250970515403e-18)
(0.8867588406871262 0.00135344806038154 -2.055547968296755e-18)
(0.9000462993178971 0.001457710055038285 -3.463089733353057e-18)
(0.9130594347564933 0.001564987217037807 -4.999849505467294e-18)
(0.9256777730996096 0.00167460147782298 -5.965454672964221e-18)
(0.9376814880167358 0.001785510815388023 -6.157651231295657e-18)
(0.9488070296431459 0.001895555455183805 -6.133075365756491e-18)
(0.958985333672154 0.002002678518493756 -7.609599675479378e-18)
(0.9683954985403248 0.00210650194084605 -9.15624883211869e-18)
(0.9770980332731651 0.002205071971291649 -8.253119454629426e-18)
(0.9849384798094075 0.002294998179487221 -6.89920045908445e-18)
(0.991746812006056 0.002374659565361128 -1.697102973524887e-18)
(0.9973546212176192 0.002442359719196668 5.140837874558764e-18)
(1.001619808857663 0.00249671156487747 1.305531129931347e-17)
(1.00447184643036 0.002536509220641558 2.322907035229223e-17)
(1.005966496547863 0.002561178045034323 1.778090690173455e-17)
(1.006329659306969 0.002571628879574086 7.84263710144119e-18)
(1.005969196478108 0.002570526006254119 -1.783742532260541e-17)
(1.005415117303053 0.00256240847334447 -6.496488438664245e-19)
(1.005091871286633 0.002552577454535897 1.417248288282926e-18)
(1.005047129722025 0.002543775754867268 1.610101808146597e-17)
(1.005076660669288 0.002535486054729381 7.983167068612068e-18)
(1.005059975446463 0.002526761329293036 6.413185878171766e-17)
(1.00501433208348 0.002517436436288847 3.061087194917312e-17)
(1.004967018044583 0.002507543254970615 -3.268741379405135e-17)
(1.004919543460301 0.002497010981990375 -1.431703270538714e-18)
(1.004868723995048 0.002485719940822716 -2.266769012232069e-16)
(1.00481390488874 0.002473536144217459 -1.525085614887081e-16)
(1.004755084441859 0.002460303967563086 2.304474744420282e-17)
(1.004692106621913 0.002445839042399391 -8.409828734039097e-17)
(1.004624769627086 0.002429925607828055 -1.597484477444534e-17)
(1.004552890197569 0.002412313457709418 4.034548442835077e-17)
(1.004476304794974 0.002392714267058988 -2.194410179027739e-18)
(1.004394872357333 0.002370798055106727 -5.793208186820648e-17)
(1.004308481242953 0.002346189860654531 2.055675479901195e-16)
(1.004217057183888 0.002318466709785496 -6.198856722362212e-17)
(1.004120572120593 0.002287155083505011 -4.329122883444247e-17)
(1.004019054069 0.002251729110219711 1.219752509375645e-16)
(1.003912598013232 0.002211609726673343 8.86040440091985e-17)
(1.003801377769604 0.002166165067213628 -5.24044321452043e-17)
(1.003685658738147 0.002114712331526405 2.186226214025575e-16)
(1.003565811426059 0.002056521351961939 3.957314286572218e-16)
(1.003442325583592 0.001990820008401492 3.959513518815719e-16)
(1.003315824803148 0.001916801520040862 6.645056628195843e-16)
(1.003187081464618 0.001833633464560333 7.764217829323216e-16)
(1.003057032009 0.001740468131368704 5.433223491193688e-16)
(1.002926792757028 0.00163645350382236 3.76344039030014e-16)
(1.002797676879637 0.001520743801844283 4.325669175151292e-16)
(1.002671213792266 0.001392508138221725 4.64491108811538e-16)
(1.002549173301962 0.00125093551134744 4.755112599267668e-16)
(1.002433598479652 0.00109523407694371 1.607941539625945e-16)
(1.002326853754606 0.0009246226438844837 2.866042976903358e-16)
(1.002231698369731 0.0007383154571644899 2.279688114191018e-16)
(1.002151400324752 0.0005355117382594555 -3.604780204547064e-17)
(1.002089917013957 0.0003153808005774871 1.571261154503695e-16)
(1.002052203942116 7.684013783399693e-05 -5.043546950075351e-17)
(1.002044720663041 -0.0001821045809576046 1.197152702741305e-16)
(1.002075525646939 -0.0004592350275602178 4.105523403698749e-16)
(1.002143207956031 -0.0007202757535519382 3.597294563900243e-16)
(1.00239610942952 -0.0009677292041327971 1.273931946607659e-16)
(1.012787789803828 -0.002122664029130909 5.360151276353461e-17)
(0.9798525088412866 -0.003095709159893218 1.32765749263593e-16)
(0.0134248198164666 5.114989763001824e-09 1.645634255329357e-20)
(0.04037040476736489 7.765809756381652e-08 1.397378042039294e-20)
(0.06760422615818221 2.269710969942233e-07 -1.29575386828144e-19)
(0.09530793932319526 4.607265016490717e-07 -6.305018764249995e-20)
(0.1236222887444725 7.843288975158326e-07 -2.056977374544337e-19)
(0.1525861393012762 1.206152035967122e-06 -1.306965243839718e-19)
(0.1820536930630003 1.735375232543336e-06 -1.569411953404367e-19)
(0.2116410160986084 2.37876137630292e-06 -1.798589374275805e-19)
(0.2407794566175025 3.13858375716478e-06 -2.205743939777603e-19)
(0.2688860493293479 4.013437800807712e-06 -1.600172451445765e-19)
(0.2955392386501304 5.001528825965902e-06 -2.23254037848819e-19)
(0.3205455279729564 6.103602226447214e-06 -3.931303186558419e-19)
(0.3438998885694594 7.322335020272807e-06 -4.484987173182112e-19)
(0.3657611646962767 8.667593179232301e-06 -4.851366549031373e-19)
(0.3863197601965526 1.015271445062363e-05 -5.302407000456699e-19)
(0.4056973455362557 1.179138745767433e-05 -7.264976941346993e-19)
(0.4239909208920443 1.360010136732003e-05 -6.279523006934893e-19)
(0.4412957513322889 1.559977366519545e-05 -6.606402643871022e-19)
(0.4577062385411794 1.781553691834917e-05 -6.63716588962701e-19)
(0.4733169631060175 2.027638531280984e-05 -6.849205890209788e-19)
(0.4882310799512789 2.301511349267727e-05 -7.914961632889127e-19)
(0.5025689516816042 2.607343290387166e-05 -7.769970394263307e-19)
(0.5164267778068303 2.949590331960771e-05 -7.827612314350656e-19)
(0.5298656160822509 3.332813235321266e-05 -8.400011285166537e-19)
(0.5429393569692541 3.76245602679675e-05 -6.302084366928887e-19)
(0.5556959061027662 4.244836483600224e-05 -9.59762652184049e-19)
(0.5681781918403647 4.787267449936269e-05 -1.072072122555033e-18)
(0.5804250137140117 5.398214858544691e-05 -9.832494341986583e-19)
(0.592471750532737 6.087469279080847e-05 -1.250324289101323e-18)
(0.604350948575468 6.866330527856796e-05 -1.309894418076829e-18)
(0.6160928072298949 7.747807745294202e-05 -1.523650853306342e-18)
(0.6277255772206561 8.746834430908181e-05 -1.554296085992955e-18)
(0.6392758845334781 9.880494776360051e-05 -1.411007483874452e-18)
(0.6507689917096717 0.0001116825235982723 -1.790162933304587e-18)
(0.6622290076500142 0.0001263216975684008 -1.506110363478988e-18)
(0.6736790575371913 0.0001429713865011901 -2.009574276797807e-18)
(0.6851414261230045 0.0001619122290572482 -1.335181192196074e-18)
(0.696637690882743 0.0001834609961883507 -1.875871354892759e-18)
(0.7081888683647414 0.0002079598022962302 -2.101274577024068e-18)
(0.7198247748210478 0.0002357559612906872 -2.86095664388464e-18)
(0.7316076577393448 0.0002672761206648445 -2.895474089893313e-18)
(0.7436061935329106 0.0003030013327733814 -3.189536400492718e-18)
(0.7558595042283068 0.0003433934459220177 -3.503169685854386e-18)
(0.7683873974361779 0.0003889547962322716 -3.814104440831407e-18)
(0.7811972455848943 0.0004402185367659388 -4.895835739833095e-18)
(0.7942879513346167 0.0004977346129593297 -4.342495833801036e-18)
(0.8076514791210944 0.0005620173910841591 -5.896431030309948e-18)
(0.8212724052272453 0.0006335405510922512 -5.529181464005635e-18)
(0.8351255291940696 0.0007126864056328019 -5.532628896716744e-18)
(0.8491715869123196 0.000799739764444548 -8.065673379548405e-18)
(0.8633531067828335 0.0008948221890599977 -5.635046586034446e-18)
(0.877595986450673 0.0009977302147213896 -5.533625716968435e-18)
(0.8918228339602544 0.001107769833110251 -2.573886655067851e-18)
(0.9059708179105216 0.001223902393539142 -5.464524117451059e-18)
(0.9199736096976642 0.001345029426263821 -4.095137453273666e-18)
(0.9336779783308474 0.001469917857018345 -7.692908127317108e-18)
(0.9467691442995142 0.001596636369560063 -4.672464672760859e-18)
(0.9588560139926507 0.001721112288676457 -4.813704864618638e-18)
(0.969857536907488 0.001840563287038682 -1.455848569599555e-18)
(0.979885540381545 0.001953536537033479 4.272935689295316e-18)
(0.9887902627634308 0.002055599866098786 5.724207031730938e-18)
(0.9962366692094139 0.002141854359876255 1.482835995225901e-17)
(1.001895912604861 0.002208864676920337 1.269255108507103e-17)
(1.005555807142892 0.002253623149350102 -2.845732136575829e-17)
(1.007287156427176 0.002274840404896037 3.084385284010199e-17)
(1.007580063704811 0.002275497012118619 -7.278509839407984e-17)
(1.007259864574013 0.002263379699057137 -5.588568086508493e-17)
(1.007032887749139 0.002247750334297329 4.4703998536111e-17)
(1.007004146808128 0.002232300477507373 4.113669335307176e-17)
(1.006991563806607 0.002215849163280708 1.643476617189665e-16)
(1.006951607427437 0.00219781166470064 -2.546034922020859e-17)
(1.006905884314201 0.002178260125714898 -5.019123291204331e-18)
(1.006858870117137 0.002157151000887321 -6.851690873515979e-18)
(1.006808507730591 0.002134381685113948 7.098935868281238e-17)
(1.006754235507082 0.002109852632051723 6.373311822076395e-18)
(1.006695954620932 0.002083463131436972 1.84029389226989e-16)
(1.006633465054277 0.002055108348672768 4.448809990395481e-17)
(1.006566544085775 0.002024678902346441 2.500951446759314e-16)
(1.006494981038646 0.001992059960747373 4.020690818379877e-17)
(1.006418577574967 0.001957129777371874 -3.818125895078463e-17)
(1.006337151808219 0.001919757626768936 -1.650299828670392e-16)
(1.006250545011083 0.001879801025685551 -3.435110492280549e-16)
(1.006158629377773 0.001837102120467313 2.608181621909e-17)
(1.00606131710914 0.001791483102346047 2.200084780523296e-16)
(1.005958571035644 0.001742740526058418 3.046727135661039e-17)
(1.005850416974454 0.001690638445761415 1.759552255639003e-16)
(1.005736958012373 0.001634900332086033 2.166023538561941e-16)
(1.005618390940505 0.001575199816836836 7.110501782821906e-16)
(1.005495025077203 0.001511150422209691 2.441482490586094e-16)
(1.005367303753608 0.001442294574797379 2.14098903008823e-16)
(1.005235828784847 0.001368092377677156 2.593344318061659e-16)
(1.005101388331231 0.001287910806263973 2.841006579963863e-16)
(1.004964988697203 0.001201014196979521 2.883106353724189e-16)
(1.004827890852809 0.001106557066706718 -1.516072648884628e-17)
(1.004691652849017 0.001003580423593471 1.432776292572834e-16)
(1.004558179932191 0.0008910128320332176 5.896342705794863e-17)
(1.0044297851602 0.0007676774720685128 6.190732002938028e-17)
(1.004309265012928 0.0006323045871259063 -1.20278722813675e-16)
(1.004199997251324 0.0004835432170628459 -3.188248266222379e-16)
(1.004106070255351 0.0003199838872000528 1.554544052475735e-16)
(1.004032449606595 0.0001403199616214251 1.343093548664991e-16)
(1.003985220570952 -5.640390550843604e-05 3.365829700205506e-16)
(1.003972244159789 -0.0002738650971880902 1.130432513297303e-16)
(1.004003695992494 -0.0005262717256490918 2.475584427389413e-16)
(1.004063944652444 -0.0007800903537776901 2.081266737033088e-16)
(1.004465006774149 -0.0007983557638792881 5.310366770299292e-16)
(1.019995881897303 -0.00184551574129678 -1.744909553767378e-16)
(0.9687554600774806 -0.003924696135761673 -1.00241708900977e-16)
(0.01285428671418142 3.869450728305667e-09 1.820572553285316e-19)
(0.03865481558348335 5.884419932457244e-08 4.660381796401939e-19)
(0.06473158957330459 1.718305715297435e-07 9.124422463518835e-19)
(0.09126000868930849 3.482251132274904e-07 1.171968443121538e-18)
(0.1183808396519217 5.915256190210531e-07 1.518833247394018e-18)
(0.1461474629314384 9.07407096954342e-07 1.902175508171699e-18)
(0.1744512688399367 1.302361343376181e-06 2.256099919697264e-18)
(0.2029655668153997 1.781590911338597e-06 2.607429005141651e-18)
(0.2311771965324194 2.347485006312537e-06 2.948292907642868e-18)
(0.258529215486659 2.999806964607076e-06 3.402336393918768e-18)
(0.2845891363016685 3.737615618882065e-06 3.569248300614756e-18)
(0.3091310533769842 4.561235812203119e-06 3.853589933100269e-18)
(0.3321146730963441 5.472002493316128e-06 4.142706618577171e-18)
(0.3536644906921158 6.475815475450804e-06 4.414357596117135e-18)
(0.3739574617617735 7.580703682389546e-06 4.656969702626958e-18)
(0.3931127229682806 8.794624705987585e-06 4.85499512658196e-18)
(0.4112173042761955 1.012557242468498e-05 5.075074204236035e-18)
(0.4283568332119805 1.158361317529246e-05 5.281021043151612e-18)
(0.4446166973836857 1.318040139664908e-05 5.314798139772074e-18)
(0.4600807712960957 1.492924397836064e-05 5.668828580313274e-18)
(0.4748341641329469 1.684558082434123e-05 5.853684500277964e-18)
(0.4889748590867146 1.894978286225912e-05 6.147671557999782e-18)
(0.50260619692668 2.12658898659704e-05 6.323819039939222e-18)
(0.51580383250809 2.382040020635486e-05 6.393413604237146e-18)
(0.5286181917099833 2.66387577981134e-05 6.43398526872268e-18)
(0.5410936713888785 2.975164183194646e-05 6.950951531259987e-18)
(0.5532696032136157 3.319387284807245e-05 6.850197654862018e-18)
(0.5651810862334038 3.700493448808412e-05 6.984105710449256e-18)
(0.5768597023596377 4.122980092114552e-05 7.148575556292833e-18)
(0.5883341316610521 4.591986371843034e-05 7.301768540832477e-18)
(0.5996306836754417 5.113397065382453e-05 7.452554480066167e-18)
(0.6107737592267241 5.693962492718634e-05 7.77786102210306e-18)
(0.6217862553502356 6.341437169869289e-05 7.576842070889695e-18)
(0.6326899239826295 7.064739361471354e-05 7.713080304624131e-18)
(0.6435056932683236 7.874134788018393e-05 7.432295132855409e-18)
(0.6542539586422315 8.781447918305617e-05 7.385497931779937e-18)
(0.6649548492269142 9.800293608704317e-05 7.771243347967996e-18)
(0.6756284733967808 0.0001094629412616868 7.605336858169668e-18)
(0.6862951453793406 0.0001223728211678295 7.78882874505277e-18)
(0.6969755920580571 0.0001369400515824105 7.128547932525426e-18)
(0.7076910945069378 0.0001534179436661226 7.408957190988945e-18)
(0.7184634214284581 0.0001721133507506071 6.751687988512674e-18)
(0.7293146128093917 0.0001934036384408789 6.543368010769644e-18)
(0.7402667978548971 0.000217739454161369 6.307651489648754e-18)
(0.7513420430490272 0.0002456449251540767 6.436808920858075e-18)
(0.7625622488729409 0.0002776338751317893 6.518786722443869e-18)
(0.7739960757370695 0.0003143552731011472 7.810092765121294e-18)
(0.7857380237182894 0.0003566041540668083 7.045551888749129e-18)
(0.7978422614524888 0.0004051378662269074 7.402447442581686e-18)
(0.8103350804304106 0.0004607802809462933 7.330731143495323e-18)
(0.8232241976166387 0.0005243389943641868 7.330271358439445e-18)
(0.8365047101050136 0.0005965514069398331 4.631593757007903e-18)
(0.8501611697655825 0.0006779986555313648 9.765339098801854e-18)
(0.8641652886558222 0.0007691114009183348 9.990621789256962e-18)
(0.8784709158591308 0.0008701410339620623 6.831529696293444e-18)
(0.8930096072536808 0.0009810053590314941 6.918667596688922e-18)
(0.9076881451575884 0.00110101617259728 7.022859653850124e-18)
(0.922375484421882 0.001228691352115973 7.35142908940921e-18)
(0.9368564153532085 0.001361990507830115 1.727317649362444e-17)
(0.9507684452708435 0.001497755701033512 1.714822446711686e-17)
(0.9636476632408498 0.001630759377162658 1.817737343149149e-17)
(0.9753079441385614 0.001757142410962792 2.23126644492991e-17)
(0.9857662275984481 0.001874770370229857 4.479477051864333e-18)
(0.9947303454883764 0.00197749576167334 2.854818298657329e-18)
(1.001659810780455 0.002057813639105164 -4.472556855993798e-17)
(1.006125175231935 0.002110504521575947 2.857936536403243e-18)
(1.008146317408188 0.002133243788900873 -1.196156921814277e-16)
(1.008467453458806 0.002131755890180093 1.142846404954753e-16)
(1.008255769373499 0.002119202472205856 7.507749224656245e-17)
(1.00816307450866 0.002105461880064407 1.254256405020412e-16)
(1.008136245882771 0.002091198799493641 1.647224555364506e-17)
(1.008096526179592 0.002075484697003372 -1.029704730739927e-17)
(1.008050041271223 0.002058235968846244 -2.874233973680512e-17)
(1.008000953198479 0.002039361661307629 1.22316555002346e-17)
(1.00794842838161 0.002018710811452396 -1.559578974677931e-16)
(1.007892123414089 0.001996122510184053 2.74425081948399e-17)
(1.007831906257432 0.001971423013029252 1.212259400458049e-17)
(1.007767610618308 0.00194442490756514 -5.024132489666978e-17)
(1.007699076212819 0.001914927312992986 8.7205698217637e-17)
(1.007626161771465 0.001882715729605639 7.510343625788872e-17)
(1.00754874799164 0.001847562011928968 9.877344179652116e-17)
(1.007466743332861 0.001809224526543617 5.894777424063764e-17)
(1.007380090929161 0.001767448467133714 -1.839285270378498e-16)
(1.007288776287035 0.00172196627646715 -1.173377547295329e-16)
(1.007192835917448 0.001672498093888367 -6.838983526169143e-17)
(1.007092367000769 0.001618752101442579 8.318115775112232e-17)
(1.00698753817654 0.001560424577061729 -4.612833799810358e-16)
(1.006878601610005 0.001497199395171255 -1.101935993709363e-16)
(1.006765906537759 0.001428746639832869 -8.047329072996268e-17)
(1.00664991459512 0.001354719922852444 -1.467792006739662e-16)
(1.006531217362904 0.001274751939622152 -3.813783689635103e-16)
(1.006410556764008 0.001188447759050607 -1.736147983840957e-16)
(1.006288849212764 0.001095375358793065 -6.118467958928277e-16)
(1.006167214787598 0.0009950529725619376 -4.99351048864891e-16)
(1.006047013206493 0.0008869328901647155 -9.975311847065746e-16)
(1.005929889091381 0.000770381482994017 -1.013838436866918e-15)
(1.005817829940509 0.0006446562808706069 -7.324540588879337e-16)
(1.005713241583061 0.0005088828684416439 -7.777848196646171e-16)
(1.005619049151866 0.0003620208490457845 -4.006270065102814e-16)
(1.005538838411717 0.0002027576250122351 -2.753935837651034e-16)
(1.005477039119262 2.945943542681734e-05 7.520132821559178e-18)
(1.005439071266108 -0.0001583747003595274 2.618451005362591e-16)
(1.005431843040608 -0.0003596563301552886 5.080970614682546e-16)
(1.005465837232836 -0.0005992765290373703 4.940929718081761e-16)
(1.005515129068316 -0.0009168760914118906 4.302460815347247e-16)
(1.006115019343268 -0.0008508920106510749 4.412235794682111e-16)
(1.025465098493279 -0.001469552455631443 1.900619493810125e-16)
(0.9588797655650556 -0.00458107299114055 -1.495144251736065e-16)
(0.01246666081135928 2.990716853918881e-09 1.483113876546752e-19)
(0.03748901699242754 4.548700633376437e-08 4.460050220265606e-19)
(0.0627792873252707 1.328343269792112e-07 7.468911496321714e-19)
(0.08850853980949956 2.692087972555944e-07 1.052995916427213e-18)
(0.1148169941415865 4.573284765781705e-07 1.365966505123704e-18)
(0.1417662642450994 7.016420403225798e-07 1.686510011798349e-18)
(0.1692700485051793 1.007362642433001e-06 2.013551705454202e-18)
(0.1970373449942555 1.378933681216651e-06 2.343579290398689e-18)
(0.224591554099174 1.818838786460598e-06 2.670875992765105e-18)
(0.2513953317456438 2.3275792322981e-06 2.988989118919827e-18)
(0.2770120041359651 2.90498129673579e-06 3.292677420890069e-18)
(0.301196091702293 3.551716695935608e-06 3.57893932924794e-18)
(0.3238844788417656 4.269406412200727e-06 3.846869496736896e-18)
(0.3451730638031597 5.063108738362262e-06 4.097265093064294e-18)
(0.3652296321877117 5.93979527477938e-06 4.33140756279158e-18)
(0.3841771945119608 6.907133275138794e-06 4.549400534290316e-18)
(0.4020978330250659 7.971973759570077e-06 4.852407757498132e-18)
(0.4190720015828391 9.142965518550505e-06 4.995059145482634e-18)
(0.435180737325696 1.043008583581881e-05 5.222266179993445e-18)
(0.4505037429679506 1.18445726357149e-05 5.435428270650035e-18)
(0.4651201973262073 1.33989149732442e-05 5.637120477052699e-18)