/*--------------------------------*- C++ -*----------------------------------*\
| =========                 |                                                 |
| \\      /  F ield         | OpenFOAM: The Open Source CFD Toolbox           |
|  \\    /   O peration     | Version:  v1812                                 |
|   \\  /    A nd           | Web:      www.OpenFOAM.com                      |
|    \\/     M anipulation  |                                                 |
\*---------------------------------------------------------------------------*/
FoamFile
{
    version     2.0;
    format      ascii;
    class       volScalarField;
    location    "0.00000056";
    object      betaFieldInversion;
}
// * * * * * * * * * * * * * * * * * * * * * * * * * * * * * * * * * * * * * //

dimensions      [0 0 0 0 0 0 0];


internalField   nonuniform List<scalar> 
44064
(
1.499305419970486
1.499438705423049
1.500603705356504
1.505326920291535
1.518212669431123
1.545406954564939
1.590587503342756
1.647203524975505
1.698843730784534
1.731424903860697
1.739891006098925
1.746032390517015
1.747359560127824
1.738646137910572
1.730973653207573
1.716184415580677
1.69778821421506
1.679664691895563
1.666378104245834
1.658509487282919
1.653943426949006
1.650582909950859
1.647696299475821
1.645232110267937
1.643467002961446
1.642590218903029
1.640450014706853
1.63821597858717
1.635933035941648
1.633962266808022
1.631039260103564
1.627611489156648
1.623820564186373
1.619628594533121
1.615558938448543
1.61160268941913
1.607284814388675
1.607479456512038
1.611197570310035
1.612533560697855
1.614871099813626
1.607852872270521
1.590772176094187
1.572110732065997
1.553090560947382
1.537624499519427
1.525503065914262
1.516411734517392
1.509794230959464
1.505131944308209
1.502047629005652
1.500154353120402
1.499138820027071
1.498745313843694
1.498753601397334
1.498958616905006
1.499165096556689
1.499275732831491
1.499300554490116
1.499306506547816
1.499304389912624
1.499292933772332
1.49928880789602
1.499298002220701
1.49930222227474
1.49930103947417
1.499301866965252
1.499302039563715
1.49930215572271
1.499302240475589
1.49930222375106
1.499302238820849
1.499302276084854
1.49930232924815
1.499302403690214
1.499302486754629
1.499302547823766
1.499302573595534
1.499302640505302
1.499302711856579
1.499302799985485
1.499302775822459
1.499302612117827
1.499302516298696
1.49930247885961
1.499302409050564
1.499302409166395
1.499302407067936
1.499302394243951
1.499302380583338
1.49930235547918
1.499302348385801
1.499302264533902
1.499302209593982
1.499302197403281
1.499302162233017
1.499302149712501
1.499302134570582
1.499302132841342
1.499302139821964
1.499302120274678
1.499302181303648
1.499301996284045
1.499302294139941
1.499304193135195
1.499660850340516
1.508852977028629
0.006427711542963754
1.499303926584266
1.499376348837976
1.50002996866502
1.502767662553523
1.510498903010316
1.527551907102509
1.557979671646722
1.600830404785187
1.64658857052544
1.682751515645107
1.701849019642321
1.702125084947983
1.680048413167941
1.65371401041825
1.620398802449415
1.577700249626852
1.532315167448235
1.48942177453744
1.45478161553466
1.43221926007445
1.430615502799139
1.435411439813899
1.441603502200817
1.451207290488213
1.454199199239689
1.455114236988354
1.454747208570101
1.45322133079052
1.451386626011265
1.449131251469063
1.446683511311678
1.444601425371149
1.443419014293564
1.441839468764855
1.438410336885225
1.437549533900255
1.437376127361569
1.437602514993465
1.438456152147152
1.440567408963944
1.44479613773254
1.452333736498765
1.464373497936326
1.481046013009915
1.503888772258105
1.524594234150677
1.539368206166169
1.546396145493486
1.545191336918817
1.527374889692269
1.506754374121688
1.491158083732151
1.484585757019378
1.482620468061886
1.481852353333579
1.482490537706924
1.484819758052702
1.488555456181014
1.492654967733904
1.495976164125133
1.498001709423858
1.498957633938859
1.499272456027428
1.49930747720297
1.499288673417425
1.499287581737174
1.49930193233193
1.499301376483734
1.499302339373038
1.499301983106645
1.499302142560973
1.499302239273434
1.499302257398137
1.499302303538562
1.499302377475822
1.499302459273176
1.499302517176778
1.499302537930009
1.499302617232527
1.499302691978026
1.499302778109954
1.499302753588478
1.499302587326359
1.499302504644403
1.499302486202008
1.49930240747349
1.499302399538922
1.499302394846003
1.499302379869433
1.499302350679164
1.499302325825572
1.499302351543137
1.499302224506867
1.499302115125378
1.499302082849851
1.499302015257107
1.499301993522808
1.499301941597698
1.499301929690175
1.499301943402556
1.49930184695404
1.499301871555044
1.499301456675766
1.499302880191975
1.499307125075123
1.499421587164877
1.500993991411115
0.001382079594128187
1.499303782434381
1.499369926207256
1.499966987280646
1.502468900934266
1.509544046265816
1.525210242189375
1.553409467126363
1.593665727328394
1.636826732143182
1.669107889472984
1.68114984407136
1.669852477293507
1.635105748008743
1.572336699606019
1.523862659027238
1.471030419620238
1.432008160784215
1.399217826023865
1.382891068825744
1.376829830169993
1.37285111855152
1.376770725746588
1.382234977447781
1.383093902842724
1.38292244800451
1.381871103084427
1.378415982078548
1.37686052616283
1.374780332668906
1.374478915386964
1.373151646616306
1.372677843391087
1.374244167394297
1.372896503201336
1.372375559182584
1.37113590613737
1.368929127860514
1.366777674817807
1.36429464041246
1.361755301413597
1.359123979103862
1.353827795145744
1.352024257717438
1.352092204586323
1.352985273331266
1.354975900809394
1.360370869495239
1.371937423376737
1.391583160012364
1.418102560721072
1.433719210499951
1.441156007530019
1.431724216798786
1.411951959001138
1.387676649811654
1.395555477173671
1.414553397096587
1.434396825612883
1.44873145127104
1.462471316947831
1.475048048025123
1.486028525414597
1.493788998430843
1.497770018110014
1.499094789681225
1.499298173572774
1.49929796429221
1.499299255329799
1.499302211327306
1.499302270923435
1.499302214473103
1.499302237276654
1.49930225860415
1.499302285054422
1.499302330077447
1.499302385308621
1.499302426989704
1.499302433544843
1.499302476222321
1.499302527369039
1.499302611334589
1.499302616823899
1.49930249389861
1.499302419123671
1.499302394717724
1.499302330109869
1.499302328205719
1.499302329625356
1.49930232452234
1.499302310522036
1.499302286590562
1.499302305367059
1.499302208025007
1.499302125332963
1.49930210347621
1.499302034849967
1.499302021350662
1.499301967510925
1.499301922166297
1.499301887828947
1.499301668721934
1.499302111429128
1.499300767402715
1.499301551985611
1.499313285888368
1.499851588243663
1.499488008540029
0.05696025342606226
1.499303490608126
1.499356907382977
1.499839092771817
1.501859833414322
1.50757729746313
1.520263444850934
1.543242676730753
1.576509381055996
1.612818248457534
1.639787111381829
1.647760339997179
1.633332195515075
1.598554422699757
1.544642827114928
1.499772266143516
1.452087450730815
1.412562191828675
1.384755146339866
1.365521957568491
1.356406084477299
1.351830924455672
1.356770059005447
1.364823760076602
1.369669189732263
1.371942748545792
1.371957372077235
1.372438792536772
1.373270149646386
1.373714078785373
1.373978503802773
1.373647921057885
1.373446718927819
1.373194331927858
1.372778162809663
1.372140874486165
1.371260214750153
1.370996827696106
1.369953297824813
1.368164514278786
1.368115979292589
1.365889740597322
1.362566343004047
1.358993905889005
1.356124396543807
1.349327157257017
1.345036003011305
1.34068044473494
1.338073854924177
1.337010724774323
1.337417455313549
1.341662409079622
1.35266203021434
1.373818555379773
1.400845909975373
1.407711192805982
1.397101109151939
1.370228391498264
1.342831673918117
1.358193613143442
1.391375796224012
1.423331702539297
1.444573083644659
1.464034621667784
1.480138105256144
1.491817670419568
1.497535578977497
1.499114072834758
1.49930088092792
1.499300508951317
1.499302141632724
1.499302243377478
1.499302242568581
1.499302261763805
1.499302295681721
1.499302352880556
1.499302425900772
1.499302485833693
1.499302499484157
1.499302556334113
1.499302619304851
1.499302726732499
1.499302740460748
1.499302590481664
1.49930250512854
1.499302485054975
1.499302411418516
1.499302420847886
1.499302429317235
1.499302421342197
1.499302417569022
1.49930239601684
1.49930241137714
1.499302302652251
1.499302211041504
1.499302185161409
1.499302125220467
1.499302093767061
1.49930203335479
1.499301957377617
1.499302028617447
1.499301608301078
1.499299961589767
1.499298843381771
1.499299003368332
1.499353491533623
1.501622556140443
1.499562867261363
0.5666930392256656
1.499303298025439
1.499348317136649
1.499754729873091
1.5014586931856
1.506288505915727
1.517062528348584
1.536832388361926
1.566218359909465
1.599798031962401
1.626730061399166
1.637144589157283
1.626430367130307
1.594903775573826
1.541478840429378
1.504579923017381
1.470139492924638
1.432422263534437
1.411318538656045
1.395017743695371
1.378882667037863
1.369720699291232
1.36915041576793
1.372872746265313
1.374627530623512
1.375098786307303
1.375713949182082
1.375083221742538
1.377014902430461
1.379220768592593
1.380489651871614
1.381011233320704
1.381705487764261
1.382401682530221
1.382986230022963
1.383394437833919
1.383591227877878
1.383555808796431
1.383273486659536
1.382733814031252
1.381926397654584
1.380830815092716
1.379413101048133
1.377634519364069
1.376370643148844
1.374136599657971
1.372984012958266
1.369500748525212
1.363060618513231
1.358063604020999
1.352630042816175
1.349055507562363
1.347687499156193
1.348305004064731
1.353322058331545
1.365665533216123
1.385127490799166
1.404707292729095
1.39827156064338
1.371285184265324
1.340773071415854
1.346843131871722
1.383582582252264
1.420366615849918
1.443626670088963
1.46548096303721
1.483373515587668
1.494665445239058
1.498619748048406
1.499275007062748
1.499302128317494
1.499302025468512
1.499302220012923
1.499302262653557
1.499302307121005
1.499302382840003
1.499302483271742
1.499302571865435
1.499302596439355
1.499302671525119
1.499302751561705
1.49930289990937
1.499302927572996
1.49930273064365
1.499302621490738
1.499302605007826
1.499302513884908
1.499302541918485
1.499302566864886
1.499302560206877
1.499302574281904
1.499302555731856
1.499302575825151
1.499302430551998
1.499302308025093
1.499302268167951
1.499302172474525
1.499302120430838
1.499302057240424
1.499301951444928
1.499301013336228
1.499299259907735
1.499298962050625
1.499298132119489
1.49929942098768
1.499401028846798
1.501760476744258
1.501482269384505
0.1404795997190224
1.499303160696008
1.499342190802834
1.499694564272835
1.501172586530513
1.505369002198848
1.51477676929458
1.532248462537824
1.558874974489567
1.59074697125494
1.618675194002681
1.633251481879454
1.629372053915358
1.606358784664842
1.565061624782886
1.524798874816767
1.490298894090861
1.455342102091037
1.431731157527356
1.412075696411287
1.393971828399275
1.381837938951132
1.377595820493805
1.379076418354219
1.379901335712315
1.379282737226065
1.379233843251181
1.377810230761233
1.37899027266594
1.380881808663374
1.38228347786125
1.383009826788826
1.384073434252568
1.385293903951333
1.386549604420197
1.387771005883372
1.388917629858497
1.389966777322378
1.390908291747721
1.391741342276311
1.392469745956634
1.393086712135434
1.393563432363171
1.393854739953818
1.393900397369279
1.393632121771104
1.39300584831356
1.392792363527906
1.391900338727854
1.394049163090113
1.392484638393109
1.391993530761312
1.38577557578139
1.378917341730825
1.371390491251424
1.369212884015486
1.371745175640851
1.380383666573927
1.392115209337007
1.404255359224893
1.389072821746688
1.3572362627051
1.337745780483793
1.362233374838604
1.403680695954513
1.437267032113476
1.456772855505765
1.477033928129638
1.492066996267627
1.498177937805022
1.499253286224743
1.499302241354194
1.499302217491359
1.499302249784052
1.499302316048915
1.499302401512621
1.499302524357185
1.499302642003123
1.499302675730115
1.499302763868517
1.499302854690112
1.49930304456375
1.499303096895747
1.499302861459216
1.499302722632432
1.499302706375807
1.499302600395518
1.499302646668436
1.499302670052255
1.499302665540681
1.499302693840568
1.499302690167971
1.499302732258112
1.499302554984396
1.499302380770947
1.499302345029903
1.49930220524153
1.499302029920119
1.49930149320176
1.49930017617562
1.499299341254456
1.499298749995165
1.499299153637144
1.499297687147199
1.499322366337599
1.499577939914036
1.500498290344573
1.497532860091293
0.1273477912484734
1.499303023898332
1.499336087251097
1.499634609481185
1.500887156670049
1.504447899401758
1.512460644350053
1.52747651449987
1.550785842910476
1.579612636322964
1.606254630823685
1.621833174577233
1.620641261150668
1.600997361950435
1.56252849835671
1.521296439412769
1.492724918313857
1.466345121521948
1.439763257875075
1.424017095323022
1.407817137451906
1.395073103818396
1.389087184770101
1.388810790317432
1.38856171496118
1.386122786482398
1.385153324736652
1.384648499920912
1.384884935558734
1.386183017299171
1.387150787124712
1.387486296194612
1.388280218920492
1.389370630390364
1.390640430165877
1.392016238062456
1.393449913668994
1.394908815779509
1.396370589601035
1.397820770636502
1.399248329218503
1.400634163104175
1.401939594662899
1.403112438196275
1.404092068302831
1.404809974137842
1.405203361018971
1.405221707276449
1.404831173066415
1.404003075781473
1.40465791932341
1.404076548841504
1.399511394598039
1.398584107069429
1.395922532621664
1.392176440670899
1.388639874424025
1.385317569163367
1.388993866005555
1.395871565642682
1.400595360499116
1.400022318901496
1.367433718820203
1.333242256158878
1.340948659621826
1.39322306528218
1.432574223593975
1.452985402503173
1.474259026011962
1.491264288204285
1.498162080554582
1.49926305434051
1.49930226636765
1.499302254883867
1.499302310369598
1.499302412088372
1.49930255083825
1.499302683355905
1.499302715496382
1.499302813099987
1.499302907765112
1.499303124279123
1.499303193089669
1.499302925284193
1.49930276512992
1.49930274941052
1.499302624751614
1.499302686708305
1.499302730533053
1.49930272167423
1.499302754099322
1.499302721021501
1.499302748015362
1.499302576486067
1.499302348970834
1.499302218615922
1.499301799903544
1.499300794068471
1.499299999518332
1.499299328548821
1.499298867459024
1.499298510140202
1.499299697363129
1.499314957254729
1.499405134193114
1.499821882900285
1.499148104929137
1.493867001718405
0.1330687606432711
1.499302934061297
1.499332079507029
1.499595238996944
1.500699673489743
1.503842264181192
1.510933569392522
1.524311624696033
1.545367859121228
1.572079081805965
1.597891781884928
1.614603454257802
1.61641145565989
1.601127320303371
1.567567621341383
1.530353293169399
1.504425535150026
1.479514933571541
1.454028510485287
1.434688829714572
1.417522620109667
1.404704312394529
1.398133986933048
1.397158069039873
1.395502646948654
1.39430679657975
1.393072159949108
1.392862230959349
1.392043052915383
1.392573981005109
1.392999448302143
1.392815620315112
1.39315560513929
1.393883809148776
1.394898215174087
1.396135287269267
1.397551597427018
1.399114404721517
1.400797402516889
1.402579373396295
1.404441615835895
1.406351802023933
1.408249876221618
1.410060771594867
1.411706596314599
1.413107983129127
1.414192278443322
1.41490790062438
1.415223047468386
1.415116049419837
1.414572204892837
1.415439883022526
1.414414050010707
1.413273941695622
1.411133508020636
1.409436882808408
1.408762000306004
1.4068199769317
1.406253730251608
1.405566630675877
1.407629397635624
1.406029985276713
1.404596933354437
1.374402953152619
1.340963138587362
1.347014192857141
1.398946231408025
1.437063878419061
1.454708426650485
1.475354941959843
1.492507618610783
1.49854439258452
1.499285195511752
1.499302069769922
1.499302282185201
1.499302395663107
1.499302542406934
1.49930268374873
1.499302704588514
1.499302805170804
1.499302894934714
1.49930311428584
1.49930319053269
1.499302916863803
1.499302749667123
1.49930273458823
1.499302606724701
1.499302658564615
1.499302672518295
1.499302671846944
1.49930267977811
1.499302639002643
1.499302640641265
1.499302411498051
1.499301879559038
1.499301242765461
1.499300633324482
1.499299999785929
1.499299379765355
1.499298857102663
1.499298578425445
1.499298819824809
1.499309310162428
1.49933455994742
1.499509417418894
1.499861284605088
1.499076322659888
1.495129045392909
0.1096482411215587
1.499302871440189
1.499329285915449
1.499567795820452
1.500568983414822
1.50342011382801
1.5098693405334
1.522106803411755
1.54159864486065
1.566877078364365
1.592300080102543
1.610318030079056
1.615173998855951
1.604235170726428
1.57551530891163
1.54425554930398
1.508727643274181
1.483149474159657
1.459377986272751
1.436411862000994
1.416798180548286
1.404565099721798
1.399126607434828
1.399791673264031
1.400901115314
1.400872651755046
1.400065474025247
1.40046182299761
1.399509390045662
1.399645502458273
1.399673951050245
1.399081428271257
1.398935669629997
1.399211043256119
1.399842192928496
1.400796025363686
1.402054424590483
1.403603409115761
1.405429074832323
1.407515968994142
1.409844298294948
1.412373916806996
1.415029939035857
1.417718264048368
1.420342137326071
1.422806386670127
1.425030900714545
1.426956145083892
1.428537676895525
1.429755396267317
1.430613050521814
1.431125042655317
1.431364837951128
1.433229643237297
1.436369238604456
1.440440989199668
1.43527845988876
1.427727374576418
1.424314462231435
1.422127785163658
1.419004638601895
1.416798710395533
1.410729113760467
1.405534333198086
1.379310517027249
1.34768682959917
1.358316927790772
1.412290510484761
1.444887837673271
1.458237774177555
1.479381406808565
1.494983252685535
1.499016445018223
1.499299553259648
1.499302279727379
1.499302389878685
1.499302525860914
1.499302659171117
1.499302666427306
1.499302768117134
1.49930285119641
1.499303057144295
1.499303126059
1.49930285251173
1.499302689683104
1.499302686323838
1.499302557594815
1.499302587755432
1.499302604332509
1.49930257910592
1.499302579950717
1.499302377264473
1.499302044984881
1.499301541670811
1.499301005642089
1.499300517249154
1.499300000969088
1.499299474224475
1.499298991394095
1.499298672838789
1.499299026710783
1.499303179979655
1.499323211035573
1.499371280554769
1.499595608188006
1.499714636685227
1.49890164589339
1.496925859126365
0.1348118260166451
1.499302817114949
1.499326862372508
1.49954398435085
1.500455513177906
1.503052669925531
1.508936455049967
1.520142159888157
1.538125907895398
1.561769922377633
1.586099147025487
1.604096884676286
1.610112022518024
1.601315177725772
1.575514273460724
1.546869187797339
1.513496375425919
1.489239603128174
1.466312367742006
1.443840129038705
1.424856199934451
1.411325711924094
1.404726803369104
1.404428269450196
1.404789267183223
1.404109589625347
1.404164522825821
1.404774988087761
1.40435159102023
1.40459124559972
1.404709305530629
1.404152059638982
1.40398869724184
1.404213332574084
1.404773923884222
1.40565151272325
1.406845391497507
1.408362199593593
1.410207898628246
1.412384889653701
1.414886475421444
1.4176799185073
1.420689997875697
1.423815614164179
1.426951434012685
1.429995364548243
1.432860290456085
1.43548073198448
1.43782734580006
1.439901887177691
1.441723152695061
1.443328944171778
1.444765959710913
1.446051418707316
1.45134200974372
1.452313773904444
1.451839255556244
1.448008331606859
1.445696443050311
1.440246186832802
1.437677456010576
1.432479650542606
1.427795793509293
1.419237263868703
1.410339959886598
1.383466270903175
1.356092159064943
1.381641947930675
1.424573357725262
1.446252464566651
1.464264449639453
1.485815711397204
1.497385998981678
1.499235805318422
1.499302369405302
1.499302335655082
1.49930248973752
1.49930263256548
1.499302641067511
1.499302734666058
1.499302807695188
1.499302998603773
1.499303068775301
1.499302813286642
1.499302646786484
1.499302633941714
1.49930251098053
1.499302503290944
1.499302371677987
1.499302171982809
1.499301965716653
1.499301671389958
1.499301397284438
1.499300959929197
1.499300472071918
1.499300042493348
1.499299617312956
1.499299193581507
1.499298919058192
1.499299186419801
1.499301545171582
1.499312321376087
1.499341592243845
1.499424099114788
1.499631313877334
1.499475106889426
1.498605027357167
1.497809298827331
0.122943257654192
1.499302773544567
1.499324918604437
1.499524886084454
1.500364489725236
1.502757820167631
1.508187159052235
1.518560035658304
1.535312652838756
1.557585336283347
1.580922447985063
1.598752035350282
1.605551782406574
1.59838377617959
1.574934014650148
1.548600425599516
1.517383601971907
1.494531748442383
1.47259413222016
1.450847505095509
1.432390987200296
1.419301899844805
1.413271007504616
1.412279485768968
1.412230253641906
1.411708077393239
1.412455971462025
1.413401518976122
1.413540192321808
1.413807559370323
1.413836651026339
1.413047223382519
1.412667384453989
1.412629786903426
1.412886325302897
1.413423153823706
1.414246459302624
1.41537345453506
1.416826695123105
1.418629919717532
1.420801015489047
1.423320793490509
1.426110297325671
1.429058457705805
1.432049929536509
1.434972665307651
1.437726874212008
1.440251141300411
1.4425217394428
1.44453220630269
1.446292731658019
1.447824202133564
1.449155031135784
1.450311274572658
1.452385273647712
1.45544174090938
1.455320962639415
1.454864410929982
1.453135909672671
1.452233995625713
1.451762121982502
1.446365184464313
1.440092596972169
1.431392971949121
1.420258561325243
1.405504397323868
1.375625467945894
1.356539826427801
1.398439778196201
1.441002376616344
1.455622526088032
1.473276174645676
1.492473913207527
1.49879061141955
1.499296293289311
1.499302444636
1.499302563507707
1.499302697027221
1.499302687622632
1.499302781606941
1.499302854579302
1.499303045552868
1.499303078606328
1.49930274555079
1.499302505539637
1.499302383994616
1.4993021418688
1.499302040796256
1.499301872701626
1.49930165417909
1.499301500677487
1.499301247129307
1.499300950451246
1.499300538767478
1.49930009851115
1.49929970097827
1.499299333191407
1.499299197203541
1.49929954898425
1.49930118355391
1.499306663165862
1.499324064576267
1.499367297481271
1.499476572582368
1.499621352020601
1.499221389124479
1.498118916439761
1.498045990081281
0.105178830333055
1.499302732356327
1.499323081101659
1.499506831040986
1.500278414941037
1.502478676305242
1.507475615090284
1.517048283536629
1.532597310198111
1.553496437702735
1.575827002841283
1.593568606565033
1.601482948954889
1.596666559885016
1.576818965525159
1.554454317101869
1.529195683865457
1.501484529277125
1.478317466811137
1.457034918944689
1.438874515139149
1.425818426859607
1.419305404007106
1.419515065557587
1.420155479245442
1.41994913779304
1.42110353736172
1.422403830109052
1.423115986850408
1.423252128911542
1.423258930896736
1.42233588669796
1.421764320843192
1.421495330849964
1.421487254014612
1.42172554102232
1.422213833723715
1.422967268405051
1.424007496296398
1.425358510854662
1.427038094054874
1.429033435016441
1.431278813125481
1.433676549522265
1.43612285654897
1.438518562609349
1.440785352855254
1.442865420191485
1.44472142352352
1.446340146078684
1.447728185203913
1.448908835730087
1.449914913576623
1.450773277914125
1.451432591992254
1.453951539269172
1.455516767291817
1.455396065922202
1.453310582409652
1.454274007174881
1.455827452002974
1.455871013084246
1.450646891410147
1.442753186659148
1.429757870685708
1.415677740554032
1.392801854109069
1.360668982275478
1.365797979203548
1.422384418090541
1.455699412112313
1.462953258009112
1.483304840465969
1.496964158436561
1.499230171270836
1.499302462200063
1.499302395088509
1.499302487630958
1.499302439013769
1.499302505711492
1.499302543832643
1.499302718517473
1.499302763607905
1.49930241612781
1.499302142737016
1.499302013573665
1.499301770772531
1.499301684266711
1.499301517245168
1.4993012858593
1.499301121536283
1.4993008618616
1.499300596840135
1.49930018114022
1.499299743757187
1.499299509450302
1.499299774419071
1.499300561725955
1.499301787406321
1.499304309207791
1.499313494607474
1.499338226915551
1.499394240769719
1.49950787734884
1.499475366270034
1.498801410565848
1.497937142542847
1.498533961898683
0.09440427832943248
1.499302700760694
1.499321671532288
1.499492980349578
1.500212379689855
1.502264472720032
1.506929343269521
1.515887010960802
1.530511766195151
1.550367408971513
1.571986676675068
1.58984800872369
1.599017338337374
1.596687708913133
1.582391205762023
1.555033740777276
1.527029387796352
1.496457024787729
1.47510223947378
1.455982676610924
1.439278964309074
1.426104116708097
1.418261981407815
1.417435245606794
1.421326643314321
1.423164248587712
1.425419095327858
1.427512723379406
1.428926552323566
1.429194657984967
1.429332752683452
1.428481895887517
1.427886296642384
1.427533941605058
1.427394161145153
1.427459039756746
1.42773601353069
1.428243146278291
1.429005772817254
1.430054157287779
1.431414834723603
1.433080633563329
1.434985358393785
1.437026440958223
1.43910184823454
1.441121738998246
1.443013441771957
1.444727692355652
1.446234071760624
1.447529911684157
1.448616523254449
1.449508401451439
1.450231687123956
1.450819779414035
1.451285896226259
1.451555983232057
1.454794565334437
1.454875505172394
1.454619945852019
1.453993529690446
1.45540925045592
1.457521694982642
1.456420763462767
1.449383721482167
1.437823235604784
1.420840486779429
1.403658792456968
1.379603132774225
1.361029188245419
1.398907235958871
1.443027168169639
1.456835734979526
1.472205598955759
1.492491310523175
1.498886864998223
1.499300697151345
1.499303595917873
1.499303205643798
1.499302774593705
1.499302543537827
1.499302348047507
1.499302370295464
1.499302312357021
1.499301865761613
1.499301528159958
1.499301369615273
1.499301101372318
1.499301020429645
1.49930086072056
1.499300630960696
1.499300500183434
1.499300285943693
1.499300022466486
1.499299695333395
1.499299721994226
1.499300843678735
1.499302278575696
1.49930278556817
1.499303513576677
1.499307894203076
1.499321978484339
1.499353221220846
1.499414848674045
1.499509844725286
1.499299315344832
1.498524536108881
1.498068307197393
1.498731332569837
0.0900639798907269
1.499302665295286
1.499320089322858
1.499477433090435
1.500138221539732
1.50202350446475
1.506311824581681
1.514559434254527
1.528072078828853
1.546544112524084
1.566902926390117
1.584093368883965
1.593459794379753
1.592255264885245
1.579913112609581
1.55525176203178
1.529717085421227
1.503030923593942
1.474854441620185
1.456225383020489
1.440779668209763
1.428252413728172
1.422946136370039
1.422463416213015
1.426346864970569
1.429132225015622
1.431893124908936
1.434402587462761
1.436163917993477
1.436571771945228
1.436751374302623
1.435853601476486
1.435096441712574
1.43451569790436
1.434094783754617
1.433833934337471
1.433745636157718
1.433851307028953
1.434178525643095
1.434758603970799
1.435619924298507
1.436763942054186
1.438139992331456
1.439665863866183
1.441256165213462
1.442831278359334
1.444327335400409
1.445701616126507
1.446925220621482
1.447987534887569
1.44888956082256
1.449636314362907
1.450248639789209
1.450772046079391
1.451221808036602
1.451614284307968
1.453628721119877
1.454767807598308
1.454579346091576
1.453895820336949
1.455632087398058
1.458596762790166
1.460673390386422
1.458476551986299
1.449711347616545
1.434543566261165
1.416552935526025
1.39544807295522
1.366301578895703
1.364235609052787
1.422648137280461
1.458111617034073
1.463663975992576
1.484756718174293
1.49762625242397
1.499267850206293
1.499301234636555
1.499302111570695
1.49930240046182
1.499302560218482
1.499302531476331
1.499302606446144
1.49930251746792
1.499301953784332
1.499301490481177
1.499301224941738
1.499300842234111
1.499300678198128
1.49930047078353
1.499300237937362
1.499300091615794
1.499299864757468
1.499299940213614
1.499300981177887
1.49930233685446
1.499303303023895
1.499303452697685
1.49930363470499
1.49930582427773
1.49931424259041
1.499332151433205
1.499368749223074
1.499428514712673
1.499481792560586
1.499300848266332
1.498323030065675
1.498232608398711
1.498661807758803
0.0890364186252775
1.499302627059058
1.499318384198433
1.499460676050697
1.500058254319892
1.501763252978247
1.505642088999487
1.513106111083004
1.525352390331522
1.542144368419128
1.560748277973663
1.57657260264269
1.585287011363451
1.584251684607953
1.572828516482663
1.549769685392304
1.525632984172555
1.499692128383381
1.471507536487331
1.450959114560643
1.437970375117981
1.42892794985075
1.424744834393251
1.42912268280994
1.430689361304669
1.433511157963472
1.436534479431953
1.439442153033963
1.441319731391196
1.441858582581281
1.441974446548556
1.4409718124348
1.440004505906996
1.439184227593458
1.438505343189329
1.437975013358191
1.43760649590982
1.437415728357418
1.437422332160949
1.437650912098759
1.43812602515969
1.438847805343801
1.439774740710839
1.440840780965055
1.441976464320546
1.443118108187029
1.444217238964009
1.445243125085165
1.446186265488518
1.447039128238516
1.447799804771165
1.448487339151656
1.449138539527894
1.449799406960031
1.450512921638949
1.451295510888416
1.452021790809121
1.45523834754435
1.455899901592683
1.456400070961735
1.457155409487676
1.459494549009106
1.462429733204381
1.461849604153033
1.455183119747943
1.442732259268811
1.422964812941019
1.402170196441173
1.379111878784023
1.363247399339894
1.405535662690697
1.448616015490448
1.457651664425169
1.475243597640101
1.494652511113224
1.499102622196185
1.499284429234006
1.499288988521844
1.499291897075025
1.499294228435498
1.499295966645389
1.499297508192435
1.499298599153556
1.499298925993366
1.499299179566163
1.499299502912069
1.499299583268765
1.4992998445756
1.499299943942165
1.499299893718669
1.499300068711738
1.499300993728318
1.499302249888743
1.499303205542778
1.499303870761482
1.499304439382048
1.499305076525772
1.499306846871437
1.499312294844162
1.499324084626351
1.49934587436283
1.49938591929552
1.49943194523509
1.49932621513315
1.498924721128925
1.498211491417575
1.49878056441023
1.498634883925529
0.08792945498800453
1.499302594444278
1.499316928484792
1.499446371024515
1.49998999261493
1.501541083816792
1.505070246263642
1.511864682570649