/*--------------------------------*- C++ -*----------------------------------*\
| =========                 |                                                 |
| \\      /  F ield         | OpenFOAM: The Open Source CFD Toolbox           |
|  \\    /   O peration     | Version:  v1812                                 |
|   \\  /    A nd           | Web:      www.OpenFOAM.com                      |
|    \\/     M anipulation  |                                                 |
\*---------------------------------------------------------------------------*/
FoamFile
{
    version     2.0;
    format      ascii;
    class       volScalarField;
    location    "0.00000056";
    object      k;
}
// * * * * * * * * * * * * * * * * * * * * * * * * * * * * * * * * * * * * * //

dimensions      [0 2 -2 0 0 0 0];


internalField   nonuniform List<scalar> 
44064
(
1.192891470054217e-09
3.307402354198114e-08
2.181742354230744e-07
7.688858417193006e-07
1.968401480909435e-06
4.173001877665014e-06
7.81494219858936e-06
1.339654674079909e-05
2.147682996800843e-05
3.266191992025277e-05
4.761356889837709e-05
6.708494049627608e-05
9.199456646276245e-05
0.0001235199515442464
0.0001631830595088137
0.000212918844989526
0.000275007942313968
0.0003517408161100784
0.0004445011258892982
0.0005523266045271528
0.0006709953487071127
0.0007934930403855552
0.0009116172366767083
0.001017844196456754
0.00110661752016796
0.001174753315665866
0.001221159372501043
0.001246220519918262
0.001251254457662184
0.00123807467701222
0.001208701261249777
0.001165171697242631
0.001109450688804732
0.001043429271687358
0.0009689348934055553
0.0008877210506733774
0.0008014930118843507
0.0007119802771681187
0.0006211216930018318
0.0005313784675957918
0.0004455154640442765
0.0003657504966615798
0.0002935624400681564
0.0002299657016543631
0.0001755345544050476
0.0001303925156668793
9.421605140186582e-05
6.626553216823861e-05
4.546022050840289e-05
3.050558015965834e-05
2.005997015501709e-05
1.289440475798564e-05
8.049416069317305e-06
4.854002083894022e-06
2.820157033083385e-06
1.576879575088777e-06
8.56371676246139e-07
4.63196368972005e-07
2.607221463301675e-07
1.620327629357561e-07
1.165493997889451e-07
9.677744376928821e-08
8.867756740655714e-08
8.555803184363068e-08
8.443195000372224e-08
8.405176005270134e-08
8.393193430239629e-08
8.38968032879691e-08
8.388724901925052e-08
8.388484804973217e-08
8.388428791609904e-08
8.388416903640852e-08
8.388413943272814e-08
8.388412816210072e-08
8.388411451125673e-08
8.3884099509271e-08
8.388408001565436e-08
8.388405850568216e-08
8.388403374106072e-08
8.388400632383554e-08
8.388397698685899e-08
8.388394528351224e-08
8.388391268478266e-08
8.388387732669512e-08
8.388384252974169e-08
8.388380577423524e-08
8.388376905419524e-08
8.38837316270956e-08
8.388369425125904e-08
8.388365851882255e-08
8.388363050026051e-08
8.388360422475849e-08
8.388356838862989e-08
8.388352910468395e-08
8.388351008492708e-08
8.388349613062829e-08
8.388348057052897e-08
8.388346624784207e-08
8.388345792159967e-08
8.38834616657899e-08
8.389188730551452e-08
8.828164342014261e-08
1.269271282166493e-06
7.158655808716149e-05
0.001833498224334348
0.01710287288058954
0.06715243511934625
0.2629518655549889
5.73502669660115e-09
1.593328954264803e-07
1.051093885862439e-06
3.703074677416875e-06
9.478441497287046e-06
2.010062263800024e-05
3.767766123058158e-05
6.466053037459307e-05
0.0001036927965527128
0.0001573669660073923
0.0002279702433162842
0.0003173036628649232
0.0004265711267315656
0.0005562490604558348
0.0007059404803970438
0.0008741018670958933
0.001057738834178386
0.001252381628832095
0.001452422861936076
0.001651671576484129
0.001843901187640857
0.002023525362331437
0.002185945011255696
0.002327967065895415
0.00244798521192459
0.002545664115696146
0.002621695350783608
0.002677725586500181
0.002715959372423282
0.002738100150579111
0.002745142649440487
0.002737878570669804
0.002716955269491556
0.002682734425335126
0.002635433802250875
0.002574997301941943
0.002501148071102347
0.002413339248985146
0.002310575381168533
0.002191393805135822
0.002054712704622729
0.001901164039063173
0.00173339203451316
0.001553437302971689
0.001364440438160502
0.00117071044775023
0.0009784244649614486
0.0007933702846812044
0.0006202904817317631
0.000464485781544342
0.0003306490113279754
0.0002219880758251678
0.000139704110883648
8.226588607573404e-05
4.529639433414049e-05
2.328383611988384e-05
1.107864380543124e-05
4.817837770804587e-06
1.918553279823476e-06
7.250763651135399e-07
2.86581416417087e-07
1.37797931026372e-07
9.019857736801386e-08
7.567642038659266e-08
7.141683971846793e-08
7.021134528866895e-08
6.988234345134544e-08
6.979590439949541e-08
6.977415058651856e-08
6.976883930108042e-08
6.976751773515007e-08
6.976701386336463e-08
6.976666977304897e-08
6.976626689607596e-08
6.976583003731554e-08
6.976529829785925e-08
6.97647212082411e-08
6.976405151362666e-08
6.976333320517138e-08
6.976252525364448e-08
6.976166619148551e-08
6.976072321006643e-08
6.975973062923874e-08
6.975866135017506e-08
6.97575450866379e-08
6.975636306795076e-08
6.975514108092009e-08
6.975386168200204e-08
6.97525475128543e-08
6.975118478181385e-08
6.974981906353579e-08
6.974845819144389e-08
6.974706704429347e-08
6.974579418597723e-08
6.974474140265814e-08
6.974378906607952e-08
6.974290958701832e-08
6.974210128789909e-08
6.974272763527444e-08
7.179400180643632e-08
9.690723661885431e-07
8.660090282398116e-05
0.002267548242149849
0.01597261656835335
0.05421483313772531
0.1260167480778314
0.2353626981980996
0.5154584034195658
7.338387217212688e-09
2.038779849668588e-07
1.34494952233687e-06
4.738349986231426e-06
1.212834529473114e-05
2.571966046628451e-05
4.820537662890201e-05
8.270149081782741e-05
0.0001325221833960915
0.0002008013540179237
0.0002900567346727714
0.0004018066469178137
0.0005362604132410981
0.0006920381345097567
0.0008659822169930098
0.001053488800130353
0.001248952282066807
0.001446629696550953
0.00164132594668407
0.001828959184289883
0.002006505058723117
0.002171597519914208
0.002322322609347441
0.002457101876631638
0.002574836389729997
0.002675162634475702
0.002758494195387288
0.002826609446226442
0.00288183592109715
0.002925491051594115
0.002958313539188025
0.002980832994432133
0.002993392833524633
0.002996172914908229
0.002989170590139685
0.002972245522588565
0.002945132412198079
0.002907468367698696
0.002858845730504678
0.002798882437337881
0.002726956942803849
0.0026420971635357
0.002543007572664179
0.002427907638671262
0.002294571994339687
0.002140581310985145
0.001964638560844161
0.001768345022720523
0.001556817248488888
0.001334903884150234
0.001109148085211076
0.0008871044164931022
0.000676081164781926
0.0004854915140838331
0.0003242871641979957
0.0001986418782915132
0.000110262536692283
5.514564856349421e-05
2.46719735184434e-05
9.678862862452439e-06
3.267593812851538e-06
9.802173873846667e-07
2.964255323840303e-07
1.162187429884934e-07
7.270078656455185e-08
6.289471851501912e-08
6.081073507269965e-08
6.038835687582952e-08
6.030563675997248e-08
6.028958651820525e-08
6.028633181454775e-08
6.02853573433062e-08
6.028481901493812e-08
6.028424062883109e-08
6.02836621240391e-08
6.028297037626231e-08
6.028225647412925e-08
6.028143044925936e-08
6.028057410248514e-08
6.027960922667748e-08
6.027860692883728e-08
6.027750204643438e-08
6.027635558286668e-08
6.027511307072736e-08
6.027382680427473e-08
6.027245538892993e-08
6.027104100002754e-08
6.026955241379388e-08
6.026802664302017e-08
6.026643799562053e-08
6.026486648325187e-08
6.026331203224944e-08
6.026172613623376e-08
6.026024855329777e-08
6.02589694545229e-08
6.025771866096458e-08
6.025673262742126e-08
6.036923106877814e-08
2.459183784467864e-07
4.628485300612181e-05
0.001549983270325184
0.01105062097430305
0.03721967050807456
0.08595997355677905
0.1595112180207407
0.25954638038237
0.3886269351186574
0.6813167967698047
7.214334533077871e-09
2.004315289624252e-07
1.322221461023963e-06
4.658434591394149e-06
1.192506863996215e-05
2.529490216929381e-05
4.743178712523393e-05
8.143605368781199e-05
0.0001306266570107339
0.0001981460809136739
0.0002864699757586126
0.0003969504702197764
0.0005294727740610895
0.000682247621031821
0.000851800370500519
0.001033370350253213
0.0012214371537856
0.001410501826652409
0.001595779064925893
0.001773554466994188
0.00194124946052026
0.002097141573798544
0.002240063025179817
0.002369061816462803
0.002483360488641443
0.002582582183217048
0.002666930018895172
0.002737803023396557
0.002797427159492477
0.002847336904673933
0.002888300434807218
0.002920919742179589
0.002945638975671093
0.002962752069467178
0.0029724118630922
0.002974638473003572
0.002969326275226925
0.002956255057466026
0.002935084574598649
0.002905355829776798
0.002866510933084229
0.002817870320092116
0.002758655345964009
0.002688037787642149
0.002605245342260626
0.002508735108820614
0.002396652708748607
0.002266759771289633
0.002116862299875925
0.001945195680011904
0.001751285709452538
0.001537914831354586
0.001311288061134087
0.001076941315199312
0.0008430579754269278
0.0006193116262983606
0.0004192570545294817
0.0002563636828018886
0.0001387342030751679
6.542120801651757e-05
2.650630147276923e-05
8.969228151012065e-06
2.49596288852587e-06
6.143869206828108e-07
1.680628642896335e-07
7.499803479111204e-08
5.725939249522177e-08
5.412707872980799e-08
5.361044088650234e-08
5.352975589696493e-08
5.351741496074381e-08
5.35151700788521e-08
5.351439510561685e-08
5.351371586499882e-08
5.351304860363148e-08
5.351227096241267e-08
5.351146747604233e-08
5.351055247217022e-08
5.350960309328606e-08
5.35085450669004e-08
5.350744520324275e-08
5.350624184279547e-08
5.350499293266916e-08
5.350364716709896e-08
5.35022536979364e-08
5.350077444087911e-08
5.349925074031586e-08
5.349765200340981e-08
5.34960143431373e-08
5.349431582740156e-08
5.349262688469291e-08
5.349094909804869e-08
5.348924774373568e-08
5.348763531503639e-08
5.348622480776419e-08
5.350145528406427e-08
7.285669914713958e-08
8.955510048674831e-06
0.0005468083606306862
0.005374193384498156
0.02022735857761783
0.04982415066708919
0.09592757523184332
0.1584867613090253
0.2391059094358564
0.3421282387665381
0.4789291062009954
0.7843826787896993
6.247797575938261e-09
1.735790332885114e-07
1.145088640758036e-06
4.034545576391861e-06
1.032950792692675e-05
2.191842035108289e-05
4.113083294855351e-05
7.071037175736878e-05
0.0001136530017542203
0.0001728835439183109
0.0002508227568867101
0.0003489552517558956
0.0004674878322337584
0.0006051372125812136
0.0007591097129009169
0.0009254969627301119
0.001099706934527908
0.001276958513556458
0.0014529378031957
0.001624027009114425
0.001787356563997283
0.001940809697548556
0.002082818093399862
0.002212107399235129
0.002327653090107729
0.002428882251108674
0.002515837831284014
0.002589449911490303
0.002651902856502548
0.002705167570022741
0.002750100820897149
0.002787402676124386
0.002817624434702245
0.002841177208679754
0.002858341990220529
0.002869279478016131
0.002874037749792421
0.00287255808591603
0.00286467801909316
0.002850132664336071
0.002828553927174044
0.002799468079523229
0.0027622918563401
0.002716327903387588
0.002660766732080242
0.002594669286964669
0.002517002361862754
0.002426679169154828
0.002322306958823698
0.002201554239979933
0.002061867888716168
0.001900969111323545
0.001718146004659829
0.001515220658396569
0.001296308889460487
0.001065162819624956
0.0008289838441335529
0.0005987815171474843
0.000391418674822396
0.0002249171150988463
0.000110367661436019
4.522340273874903e-05
1.504132041838163e-05
3.933701540002965e-06
8.494235124605841e-07
1.908519218690876e-07
7.146065889420839e-08
5.188350628704018e-08
4.892561255778802e-08
4.851080297448472e-08
4.845613586278073e-08
4.844889647054316e-08
4.844754002975334e-08
4.844678325947998e-08
4.844607776041297e-08
4.84452768160432e-08
4.844443997746678e-08
4.844349915969774e-08
4.844251496353749e-08
4.844142805343496e-08
4.844029360510171e-08
4.843905876068152e-08
4.843777141357676e-08
4.843638760112548e-08
4.843495222423957e-08
4.843342673920101e-08
4.843185013375411e-08
4.843020604578038e-08
4.84285226816289e-08
4.842677858019702e-08
4.842502752144149e-08
4.842327246968539e-08
4.842152929342939e-08
4.842815097178286e-08
5.395932118471673e-08
2.250509190649823e-06
0.0001940050461787505
0.002634696752050019
0.0115659519982735
0.03020357684848222
0.06064720040575773
0.1033274313216632
0.1582760761192382
0.2270257602776443
0.31290037021895
0.4222895527114141
0.5671372451503002
0.885210268107495
5.44700220125477e-09
1.513310240929727e-07
9.983262044555051e-07
3.517573700169624e-06
9.00695244715485e-06
1.911745212781159e-05
3.589559254475998e-05
6.17747842366671e-05
9.945658847914587e-05
0.0001516505744762967
0.0002207064795690977
0.000308231673116568
0.0004147813037534389
0.0005396560816238908
0.0006808343191088795
0.0008351552963309413
0.0009986775940623999
0.001167092393722171
0.001336252820939482
0.001502461696181223
0.001662624983957444
0.001814314116255732
0.001955641968804125
0.00208507572453611
0.002201390820407957
0.0023038438259044
0.002392331169985121
0.002467397565361491
0.002531139723797909
0.00258583414693954
0.002632421236228622
0.002671663696627394
0.00270417991354432
0.00273045280690691
0.002750841199349267
0.002765591034439869
0.002774844842829067
0.002778649107895372
0.002776959173508493
0.002769641937214714
0.002756476220553537
0.002737151078629904
0.002711261916898395
0.002678304797428966
0.002637668903427935
0.002588627107819438
0.0025303250638971
0.002461774435722118
0.00238182781299942
0.00228920581526654
0.002182511692597935
0.002059835531648839
0.001918754022041911
0.00175743870554954
0.001575784506098445
0.001375486873631267
0.001157982008422054
0.0009280747932931542
0.0006942883792761738
0.0004707958476259549
0.0002790066115102366
0.0001388488462530275
5.603517376371686e-05
1.773718617759793e-05
4.247060929498246e-06
8.119947909097418e-07
1.636878109375665e-07
6.128331673330757e-08
4.66895137396699e-08
4.477643656764882e-08
4.454415691302865e-08
4.451748465710999e-08
4.45141422158224e-08
4.451319509077539e-08
4.451245846361296e-08
4.45116520487283e-08
4.451080286447222e-08
4.450985887686606e-08
4.450886561898488e-08
4.450777364067418e-08
4.450662315946563e-08
4.450537895519023e-08
4.450408016362199e-08
4.450269548961518e-08
4.45012493055437e-08
4.449973493594814e-08
4.449817067996873e-08
4.449651576684159e-08
4.449480340380806e-08
4.449304034788769e-08
4.449142413642317e-08
4.450474651241003e-08
5.02262055998864e-08
1.290206696354767e-06
9.583667845976428e-05
0.001513205122873676
0.007285793655529715
0.02004050802820535
0.04142869259248702
0.07174943166019319
0.1111151117207073
0.1601541992398656
0.220162070787481
0.2935449976833153
0.3843068822436723
0.4988689699415004
0.6471896807170514
0.9658967619974871
4.958389725214678e-09
1.377561600666175e-07
9.087772508438213e-07
3.202132967080266e-06
8.199929032564311e-06
1.740804865147508e-05
3.269944581826044e-05
5.63156246999861e-05
9.077202901503241e-05
0.0001386327557938112
0.0002021753670560594
0.0002830266031654902
0.0003818573694117147
0.0004981806317288695
0.000630277291493388
0.0007753548096537821
0.0009299280474940202
0.001090162946821953
0.001252222926747078
0.001412651422643441
0.001568445506309119
0.001717110980237573
0.001856593515790193
0.001985149231875853
0.002101337656196464
0.002204207234489968
0.00229348723085355
0.002369597218495178
0.002434334099166809
0.002489918931790157
0.002537538488445095
0.002577986189266992
0.002611916548550641
0.002639852714582641
0.002662197992811759
0.002679247338689544
0.002691197827919828
0.002698156796931478
0.002700148125603593
0.002697115978440817
0.00268892679103045
0.002675368796377581
0.002656149863126886
0.002630892930919113
0.002599129890890069
0.002560293048861255
0.002513705161314563
0.002458567391321535
0.002393946117327717
0.002318759057778077
0.002231779677914914
0.002131612675927657
0.002016685833551027
0.001885425314392935
0.001736169352550444
0.001568164498083853
0.001380904343009549
0.001174985716324122
0.0009535637310621912
0.000723046457248982
0.0004958814666450354
0.0002943806376948626
0.0001436858762063435
5.506622841018551e-05
1.589967719450158e-05
3.346701163073323e-06
5.641225538480257e-07
1.121717127009623e-07
5.009290180011194e-08
4.236069676059278e-08
4.147415063482226e-08
4.137976559566287e-08
4.13699598517677e-08
4.136843613657288e-08
4.136765194192631e-08
4.136683920377088e-08
4.136598987292211e-08
4.136504480069974e-08
4.136405117033965e-08
4.136296160711218e-08
4.136181917578482e-08
4.136058527417313e-08
4.135929608721217e-08
4.135791923398262e-08
4.135648531300175e-08
4.135497490621394e-08
4.135340173503988e-08
4.135177463175193e-08
4.135199694369486e-08
4.145327088434517e-08
6.781472644166736e-08
2.132252180054333e-06
9.332495804866375e-05
0.001245371168348995
0.005627351038852726
0.015198481541092
0.03116719250304287
0.05372923797635783
0.08302489222528099
0.1193757103857306
0.1634207620346898
0.2162848933522981
0.2797380751025608
0.356454008874721
0.4503822452013087
0.5672686276813566
0.7152968418913405
1.028266070969252
4.520087276206576e-09
1.255791252824692e-07
8.284486753608166e-07
2.919151644276298e-06
7.475786759704008e-06
1.5873385379095e-05
2.982702989304758e-05
5.140078802498272e-05
8.293326778233702e-05
0.0001268445093221369
0.0001853357075243338
0.0002600512514199427
0.0003517890742382294
0.0004603073799884825
0.0005842469553615668
0.0007212492925076992
0.0008682640948843417
0.001021823518470067
0.001178330068867607
0.001334383608660439
0.001486951068696841
0.001633447902643687
0.001771678249906943
0.001899728499699686
0.002015978185721461
0.002119332919502386
0.002209384267562641
0.002286440204822981
0.002352028618182239
0.002408318890620533
0.002456712580426306
0.002498029726041755
0.002532953977994957
0.002562039321822871
0.002585721583735828
0.002604330474559665
0.002618100628170575
0.002627180562490134
0.002631639686828136
0.002631473023638351
0.002626604117094225
0.002616885779339292
0.002602099091223883
0.002581950369656639
0.002556066632655846
0.002523989117449209
0.002485165397350917
0.002438939823190794
0.002384543128532715
0.002321081336340116
0.002247525800372704
0.002162723078060307
0.002065376786356574
0.00195408100591143
0.001827353566102943
0.001683748357869175
0.001521986856482493
0.001341199242792166
0.001141450730833088
0.0009253266960237151
0.0006987494434216974
0.0004737784545466711
0.0002735132685672399
0.000126163585728117
4.403209083311796e-05
1.106728719924422e-05
1.978973077126724e-06
3.021448530318435e-07
7.009437017551277e-08
4.219618856289471e-08
3.91351893811418e-08
3.88255836646083e-08
3.879618084601568e-08
3.8793015888294e-08
3.879210538580376e-08
3.879128950063212e-08
3.879044426141429e-08
3.878950845973225e-08
3.878852411448142e-08
3.878744676072082e-08
3.878631087257799e-08
3.87850854794438e-08
3.878380347308554e-08
3.878244098433933e-08
3.878110415255367e-08
3.878230514502122e-08
3.882826441918606e-08
4.345328146986428e-08
3.926168928179726e-07
8.426909682305104e-06
0.0001971453387232784
0.001587763384285237
0.005674478269757225
0.01374445186316862
0.02648171266040924
0.04405432419901396
0.06665655237517189
0.09448802445164581
0.127928362918663
0.1676000030928941
0.2144361600592272
0.2697798031182205
0.3355234167813663
0.4143092677931893
0.5098034102560669
0.6270443228350441
0.772821962445945
1.077710639817822
4.223676688290357e-09
1.173439662418209e-07
7.741225578798844e-07
2.727768283536781e-06
6.986022236508761e-06
1.483533308297425e-05
2.788370784124317e-05
4.807443869607552e-05
7.762512637277695e-05
0.0001188567604925855
0.0001739185213472368
0.000244469953388351
0.0003314036910855894
0.0004346577632190999
0.0005531283560799986
0.0006847372915896278
0.0008266115544203813
0.0009754295519534864
0.001127697691630328
0.00128001656483048
0.001429332564619247
0.00157308235295963
0.001709114181128322
0.001835549529621466
0.001950760872217497
0.002053572328225518
0.002143458484293503
0.002220608539218635
0.002286293428118356
0.002342601245972471
0.002391079887228235
0.002432553025050138
0.002467712381194944
0.002497123507307938
0.002521237063732781
0.002540400964513872
0.002554871868792421
0.002564824595350789
0.002570359813516947
0.002571509430868815
0.00256824042895478
0.002560456575938644
0.002547998705254658
0.002530643065324061
0.002508098526181923
0.002480001981336509
0.00244591267376469
0.002405304819343214
0.00235755926689874
0.002301953837700326
0.002237653579010562
0.002163701180499843
0.002079006833919137
0.00198235872069757
0.0018724351778736
0.001747852583078097
0.001607153597137388
0.001448945682625734
0.00127220597688591
0.00107680478025119
0.0008650459268888099
0.0006425344101821116
0.0004219042131718706
0.0002293157647834235
9.574696908479921e-05
2.890725268316141e-05
6.01033583495557e-06
9.016191010952348e-07
1.379351841730199e-07
4.72793078035678e-08
3.766717032622933e-08
3.673273426897845e-08
3.664862042153422e-08
3.664105672661867e-08
3.663981903855008e-08
3.663898825830061e-08
3.663814214900882e-08
3.663721361446847e-08
3.663622846048921e-08
3.663517799453225e-08
3.663429556084405e-08
3.663574302586662e-08
3.665469299643085e-08
3.693248221264375e-08
5.290441939699282e-08
5.120252829420589e-07
5.076424276385952e-06
7.49377118175868e-05
0.0006967079250903952
0.002811424800676375
0.007296359099266833
0.01478793526154347
0.02559006277306052
0.03993783348991909
0.05798650277250429
0.07991189390836105
0.1059893734330141
0.1366168771782452
0.1723550442849923
0.2139715949956853
0.2625017377991015
0.3193331813890393
0.3863245080539232
0.4659683541473125
0.5616143874583489
0.6777770224788159
0.8205938767772643
1.11754667509283
3.959960673407252e-09
1.100173446250978e-07
7.257905542280063e-07
2.557497916465662e-06
6.550247348693939e-06
1.391149554172685e-05
2.615337282854089e-05
4.511008677964058e-05
7.288802204628941e-05
0.0001117134116920944
0.0001636778781008379
0.0002304355585210647
0.0003129322306402866
0.0004112201725574931
0.0005243724530913031
0.0006505393169863418
0.0007871039834029331
0.0009309886085302736
0.001078900220327181
0.001227573687435859
0.001374012809851189
0.001515624305787517
0.001650185356835931
0.001775726953905207
0.001890519650525149
0.001993281621316933
0.002083396321727969
0.002160961651449356
0.002227037360653106
0.002283657378764282
0.002332517016724537
0.002374452791081135
0.002410170787836704
0.002440251525567449
0.002465161003997605
0.002485263108463115
0.002500831411032344
0.002512059086395762
0.002519067016768783
0.002521909726048085
0.002520579679429905
0.002515009615298366
0.002505073403390317
0.002490585160533163
0.002471297237377277
0.002446896613458618
0.002417000181796102
0.002381148407299749
0.00233879797049262
0.002289313142783768
0.002231956594585752
0.002165879491432184
0.002090112164912134
0.002003556630984523
0.00190502945687702
0.001793233469537439
0.001666815166654657
0.001524374367516331
0.001364594792069011
0.00118650047575309
0.0009901201497578211
0.0007783692639441595
0.0005582734160007033
0.0003453853171152668
0.0001699362956583102
6.123145178210138e-05
1.514899014081546e-05
2.508712565279062e-06
3.307594150307681e-07
6.517727744404824e-08
3.764833027397418e-08
3.505537476318704e-08
3.483070378796639e-08
3.481227302923134e-08
3.481064317349014e-08
3.481167827157765e-08
3.481836696010337e-08
3.484624778778127e-08
3.497717620068078e-08
3.654885456970617e-08
7.445374310778487e-08
4.964238650477514e-07
2.854996790791708e-06
1.540094426719276e-05
0.0001374347097071645
0.0007783141918066084
0.002486897955421177
0.00570701962582114
0.01079256594553533
0.01804476092243669
0.02768110178012324
0.03986042201225124
0.05472888143514731
0.07246333717502423
0.09328648778124972
0.1174882923500682
0.145447783770714
0.1776558026180188
0.2147452619040697
0.2575317381755613
0.3070687085205067
0.3647229839946363
0.4322778504389838
0.5120747516051364
0.6072107918423379
0.7218241752178731
0.8615373810390106
1.150971207453464
3.718270176099355e-09
1.033026227305276e-07
6.814948510586236e-07
2.401441662326721e-06
6.150804442983411e-06
1.306444209160094e-05
2.456594758508529e-05
4.238783918553627e-05
6.85310646117297e-05
0.0001051293123691279
0.0001542141999436715
0.0002174276189772511
0.0002957578143314501
0.000389356087434202
0.0004974516297595016
0.0006183997077804889
0.0007498198450533523
0.0008888676990526233
0.001032453852991133
0.001177464268895997
0.001320987923960467
0.001460450174572084
0.001593585761248703
0.001718318944493623
0.001832788030967916
0.001935581096611502
0.002025968466910609
0.002103949126830566
0.002170372817659369
0.002227215791459461
0.002276314230219469
0.002318519236357035
0.002354552308695798
0.002385008575650266
0.002410367679980037
0.002431006320914255
0.002447210463929172
0.002459185621068372
0.00246706545723275
0.002470918160684649
0.002470751342927034
0.002466514943960238
0.002458102893421876
0.002445353294641316
0.002428048186008214
0.002405912587725204
0.002378614044789831
0.002345763070193655
0.002306916960079944
0.002261572054177849
0.002209145576888869
0.002148963382686476
0.002080248774636232
0.002002107528643931
0.001913522139337885
0.001813339540668663
0.001700230980418772
0.001572757062438446
0.001429458544942666
0.001268990941885947
0.001090441615616599
0.0008939450076980465
0.0006826708491521074
0.0004648391242000997
0.0002616259099414322
0.0001103913250160898
3.223416832895137e-05
6.164420803010346e-06
8.153254937570589e-07
1.125430189571249e-07
4.054829161874218e-08
3.416965994806744e-08
3.467671312421999e-08
4.365862399662352e-08
1.045405849137194e-07
3.947807239952522e-07
1.374039229171255e-06
4.016790858655586e-06
1.072954477478139e-05
3.992413821472468e-05
0.0002087412297985846
0.0007591380956766286
0.001924347015097672
0.003886570766453413
0.006834536336351748
0.01098991107695387
0.01654102785310145
0.02363699782202732
0.03241219759009304
0.04300220570803939
0.05555003023227333
0.07021572253606388
0.08718781269528916
0.1066945448473568
0.1290147633778636
0.1544911702783387
0.1835469791632538
0.2167073287889158
0.2546275234797219
0.2981306222595805
0.3482577792800675
0.4063359756594432
0.4740696413942415
0.5536654834634798
0.6480043487078387
0.7608808014261654
0.8973383720960078
1.179104145493114
3.480626293754851e-09
9.670009269239766e-08
6.379377348969207e-07
2.247979931384434e-06
5.757959761727156e-06
1.223117917234347e-05
2.300361508631408e-05
3.970636147802402e-05
6.42337249940192e-05
9.862357135751349e-05
0.0001448426234398406
0.0002045163557327703
0.0002786759822293202
0.000367581819732948
0.0004706425506791457
0.0005864543029374771
0.0007129058411885026
0.000847345179881304
0.0009868321902059397
0.001128364647395189
0.001269092272132533
0.001406450257049198
0.001538140787012444
0.001662037789261263
0.001776188951258038
0.001879068268121914
0.001969834702955839
0.002048388481133804
0.002115371089793829
0.002172703603229444
0.002222367151526883
0.002265234717302231
0.002302050958704836
0.002333434051757774
0.002359886434829135
0.002381807303485917
0.002399505157819541
0.002413208181073418
0.002423073142332212
0.002429191767323169
0.002431595744229962
0.00243025945827248
0.002425101495076294
0.00241598420515916
0.002402712331291853
0.002385029636534797
0.002362613785363333
0.002335067407239591
0.002301903541436858
0.002262538478036366
0.002216291683886531
0.002162375825597926
0.002099886950430712
0.002027808666722214
0.001945054970642111
0.001850621812005053
0.00174353561381188
0.001622622206451461
0.00148645760398821
0.001333565763833921
0.001162720946412851
0.0009735007312479284
0.0007681789758213418
0.0005540872720261117
0.000347395990212214
0.0001726449541748785
5.990436123824101e-05
1.41204842102793e-05
4.321759617535871e-06
5.097674964605024e-06
8.791217644174421e-06
1.560345803610049e-05
3.424038585168034e-05
0.0001014533443953449
0.0002879588638158084
0.0006618106747827267
0.001277088515256771
0.002195803798398888
0.003493195955260844
0.005259165091863917
0.007599514958054368
0.01062570971957006
0.01444155957705925
0.01914489982703948
0.02483580021494326
0.03161949046695818
0.03960469841937931
0.04890558822227358
0.05964636811792998
0.07196607938266242
0.08602318564929065
0.1020008761776292
0.1201134800273002
0.1406142262178625
0.1638047950701216
0.1900473940115023
0.2197802621459366
0.253537776191013
0.2919767451196851
0.335911009291405
0.3863572100652378
0.4445955940992793
0.5122510821992459
0.5914015573005149
0.6847221978988826
0.7956751931171596
0.9287476946152432
1.202720279832702
3.409602085286441e-09
9.472672522919495e-08
6.249187591373466e-07
2.202108447743544e-06
5.640517196416398e-06
1.198198163892985e-05
2.253601620378827e-05
3.89026416292581e-05
6.294256791046717e-05
9.66617951229144e-05
0.0001420027615093442
0.0002005805342599507
0.0002734357607259378
0.0003608627516071004
0.0004623247407656593
0.0005764457217891474
0.0007011207047775135
0.0008336967883002364
0.0009712746265946863
0.00111091932673315
0.001249841837613823
0.001385505674081829
0.001515615439050559
0.001638053767778574
0.001750912369404391
0.001852668855749562
0.001942452559742058
0.002020120620839038
0.002086199737233248
0.002142552988160073
0.002191211623225224
0.00223305414000805
0.00226883179287934
0.002299170000238716
0.002324578287869612
0.002345462970620775
0.002362139181976994
0.002374841459158445
0.002383732076875428
0.002388907451074175
0.002390402431490582
0.002388192817221389
0.002382196011165455
0.002372270298073864
0.002358213153756168
0.002339758929984375
0.002316576532930907
0.002288267897435195
0.002254369421057725
0.002214359945890963
0.002167681267039227
0.002113780146982938
0.002052190864191692
0.001982693250117159
0.001905437108153107
0.001820192697473083
0.0017253437124898
0.001619466188120315
0.00150286379598265
0.001376053955064021
0.001238846932811411
0.001091406668684656
0.0009371480534108187
0.0007876362140972876
0.0006976312432921196
0.0007980331404003191
0.001105944446966818
0.001543486764203854
0.002058042407870379
0.002659047154994293
0.003374365332566283
0.004235559624737176
0.005276960975296546
0.006536863120851027
0.008057253016415173
0.009882317176540797
0.01205842608834961
0.01463549251350271