/*--------------------------------*- C++ -*----------------------------------*\
| =========                 |                                                 |
| \\      /  F ield         | OpenFOAM: The Open Source CFD Toolbox           |
|  \\    /   O peration     | Version:  v1812                                 |
|   \\  /    A nd           | Web:      www.OpenFOAM.com                      |
|    \\/     M anipulation  |                                                 |
\*---------------------------------------------------------------------------*/
FoamFile
{
    version     2.0;
    format      ascii;
    class       surfaceScalarField;
    location    "0.00000056";
    object      meshPhi;
}
// * * * * * * * * * * * * * * * * * * * * * * * * * * * * * * * * * * * * * //

dimensions      [0 3 -1 0 0 0 0];


internalField   uniform 0;

boundaryField
{
    b2-symmetry1
    {
        type            symmetry;
        value           uniform 0;
    }
    b3-symmetry2
    {
        type            symmetry;
        value           uniform 0;
    }
    b4-inlet
    {
        type            calculated;
        value           uniform 0;
    }
    b5-outlet
    {
        type            calculated;
        value           uniform 0;
    }
    b6-humpWall
    {
        type            calculated;
        value           uniform 0;
    }
    b7-topWall
    {
        type            calculated;
        value           uniform 0;
    }
}


// ************************************************************************* //
