/*--------------------------------*- C++ -*----------------------------------*\
| =========                 |                                                 |
| \\      /  F ield         | OpenFOAM: The Open Source CFD Toolbox           |
|  \\    /   O peration     | Version:  v1812                                 |
|   \\  /    A nd           | Web:      www.OpenFOAM.com                      |
|    \\/     M anipulation  |                                                 |
\*---------------------------------------------------------------------------*/
FoamFile
{
    version     2.0;
    format      ascii;
    class       volScalarField;
    location    "0.00000056";
    object      nut;
}
// * * * * * * * * * * * * * * * * * * * * * * * * * * * * * * * * * * * * * //

dimensions      [0 2 -1 0 0 0 0];


internalField   nonuniform List<scalar> 
44064
(
1.044422882779047e-15
1.57915106090474e-13
2.986254037620757e-12
2.189239603883739e-11
9.692317690073023e-11
3.14202333796017e-10
8.202175313714343e-10
1.818437151014363e-09
3.54623865618568e-09
6.251805255817258e-09
1.019433745080234e-08
1.566674352514904e-08
2.305765538586956e-08
3.293221239108941e-08
4.610935472843264e-08
6.382477310485275e-08
8.789408387113673e-08
1.209760978620347e-07
1.666161116499504e-07
2.285915386774467e-07
3.100357523306444e-07
4.128794413087793e-07
5.37592658776737e-07
6.832160985570045e-07
8.476180840676697e-07
1.027881888932825e-06
1.220713793422459e-06
1.422367101535342e-06
1.628872566143348e-06
1.836096429921645e-06
2.03982792688022e-06
2.235431864339055e-06
2.418037995917323e-06
2.583816892761968e-06
2.729458685874639e-06
2.851044689498434e-06
2.944431724531694e-06
3.005217943529501e-06
3.030785650617098e-06
3.021498535247566e-06
2.977863114153553e-06
2.900200032285693e-06
2.790706236350175e-06
2.65125440484937e-06
2.484663820631312e-06
2.294756648925394e-06
2.08651077395415e-06
1.865230366865124e-06
1.635415795861462e-06
1.399887978579417e-06
1.160250705312436e-06
9.194335447854313e-07
6.861642313571883e-07
4.761388900053748e-07
3.056066381563282e-07
1.823523704755683e-07
1.029842100961842e-07
5.690511487721533e-08
3.236322310155061e-08
2.020954240260099e-08
1.456852843007491e-08
1.210768395403413e-08
1.109815049754456e-08
1.070917049350804e-08
1.056870817697064e-08
1.052127707990653e-08
1.050633368556158e-08
1.050195498201066e-08
1.050076529366159e-08
1.050046732734768e-08
1.050039869787078e-08
1.050038482871608e-08
1.05003821380598e-08
1.05003818567652e-08
1.050038143480639e-08
1.050038110408024e-08
1.050038035732532e-08
1.050037963510727e-08
1.050037860223474e-08
1.050037753952003e-08
1.050037626560673e-08
1.050037495981237e-08
1.050037352327521e-08
1.050037200960666e-08
1.050037046000179e-08
1.050036885379211e-08
1.050036721017983e-08
1.050036555060857e-08
1.050036387276432e-08
1.050036227374952e-08
1.050036101816441e-08
1.050035984211094e-08
1.050035822800307e-08
1.050035644985487e-08
1.050035559904996e-08
1.050035497430437e-08
1.050035427960639e-08
1.05003536342188e-08
1.050035326713723e-08
1.050035402511719e-08
1.050141012134053e-08
1.105099623913969e-08
1.589166753481907e-07
8.973395866907318e-06
0.0002301069209324786
0.002116352315398405
0.00826188158275638
0.006016666037949755
5.021197963756636e-15
7.610330076384063e-13
1.440938337899157e-11
1.059252723345357e-10
4.717464107791997e-10
1.545143239759938e-09
4.093322772481912e-09
9.233465027833883e-09
1.830657045704759e-08
3.266530752295869e-08
5.355087374601903e-08
8.217639308251052e-08
1.199546887897344e-07
1.686386630183826e-07
2.305649957065665e-07
3.087179820569907e-07
4.065157427905423e-07
5.276512903807514e-07
6.760053331354058e-07
8.556889700785136e-07
1.070675591277682e-06
1.325148122775513e-06
1.621642171658684e-06
1.959985110096869e-06
2.337608348741751e-06
2.747487721351773e-06
3.178345838303517e-06
3.618534297516223e-06
4.066208767204629e-06
4.525942272468437e-06
4.996649192433294e-06
5.476313769267044e-06
5.961779595661956e-06
6.438152531212746e-06
6.901283810376283e-06
7.347937611722073e-06
7.769913229874324e-06
8.154985092332488e-06
8.491581272532593e-06
8.787690169556814e-06
9.069388177356763e-06
9.350843011866086e-06
9.599020603178849e-06
9.630104134289016e-06
9.498707713659863e-06
9.237948093462106e-06
8.842595320705416e-06
8.304569836413548e-06
7.640193913525495e-06
6.870511915505008e-06
6.01683606842572e-06
5.109453584934136e-06
4.190872195614688e-06
3.306065817458343e-06
2.483895655048337e-06
1.738850296649574e-06
1.089310789127974e-06
5.817763577807962e-07
2.612291156772253e-07
1.044482598704037e-07
4.213982262605775e-08
2.039868389428306e-08
1.338117155960065e-08
1.123357779412351e-08
1.060313849461167e-08
1.042470730464424e-08
1.037600350310132e-08
1.036321868053107e-08
1.036001459075377e-08
1.035925207851453e-08
1.035908363960484e-08
1.0359046135045e-08
1.035903824772459e-08
1.035903246736526e-08
1.035902860611087e-08
1.035902182660796e-08
1.035901585102811e-08
1.035900722892803e-08
1.035899923518042e-08
1.035898886608266e-08
1.035897892122447e-08
1.035896693424585e-08
1.03589553044684e-08
1.035894193087537e-08
1.035892882988068e-08
1.035891435265281e-08
1.035890022424026e-08
1.035888491610477e-08
1.035886970524535e-08
1.035885311767069e-08
1.035883697653332e-08
1.035882147871154e-08
1.035880615856669e-08
1.035879145566567e-08
1.035877965950297e-08
1.035876897972921e-08
1.035875951247527e-08
1.035875080492099e-08
1.035892319481406e-08
1.066366446040022e-08
1.439536262361248e-07
1.287276746665021e-05
0.0003372258507753303
0.002364255269017622
0.007953341875270489
0.01829667039255051
0.03394762350015799
0.01191989248022093
6.424992571936716e-15
9.738044579231217e-13
1.8439013691581e-11
1.35577018576021e-10
6.041556709169547e-10
1.981303977461651e-09
5.260634003086384e-09
1.190882646023608e-08
2.372824098586493e-08
4.260591567092719e-08
7.035857787166829e-08
1.08814747724014e-07
1.600408127925075e-07
2.264578549113031e-07
3.104014966166099e-07
4.144694903235028e-07
5.408961677451017e-07
6.919678014337021e-07
8.698058445225176e-07
1.077524397888098e-06
1.3197112052478e-06
1.601655755610844e-06
1.929191300348724e-06
2.306440035235076e-06
2.732778776032097e-06
3.201497183649754e-06
3.698445873060466e-06
4.211910121690078e-06
4.748360182617251e-06
5.31320636167714e-06
5.907360910689012e-06
6.53082892446379e-06
7.183135054273335e-06
7.864028530227432e-06
8.571240432573941e-06
9.301756722762876e-06
1.005085237018629e-05
1.081134255520107e-05
1.15735022554579e-05
1.232384715800292e-05
1.300995748296531e-05
1.358700761602749e-05
1.40569310372337e-05
1.44052644879447e-05
1.462130979446457e-05
1.473640375842433e-05
1.480903074337759e-05
1.488057662552561e-05
1.491282645105176e-05
1.453231280821313e-05
1.370371999764546e-05
1.260183036604161e-05
1.127110056561556e-05
9.760887331954483e-06
8.133249172176334e-06
6.466474096004225e-06
4.867913838856787e-06
3.426286926665385e-06
2.180078360948616e-06
1.168058022363043e-06
4.858462282031038e-07
1.601706034805387e-07
4.98940451874151e-08
1.970960614174452e-08
1.235046358186178e-08
1.068857001938086e-08
1.033524012278683e-08
1.026366215451571e-08
1.02496855869414e-08
1.024702355852366e-08
1.024653117794538e-08
1.024643681476044e-08
1.024642008124605e-08
1.024640974561332e-08
1.024640491347064e-08
1.024639466690404e-08
1.024638742167847e-08
1.024637514565385e-08
1.024636539451769e-08
1.02463512021839e-08
1.024633903841952e-08
1.024632306815588e-08
1.024630873814296e-08
1.024629111703229e-08
1.024627475929497e-08
1.024625576171041e-08
1.024623774213061e-08
1.024621756980353e-08
1.02461980779765e-08
1.024617649113381e-08
1.024615586556537e-08
1.024613553501782e-08
1.024611559815073e-08
1.024609627299284e-08
1.024608033040216e-08
1.02460641542208e-08
1.024606683143608e-08
1.026533345694744e-08
4.18187523442614e-08
7.873772264613151e-06
0.0002637351508689641
0.001873458676745977
0.006254976857966451
0.01428608703627905
0.0260495919256584
0.04132325617737583
0.05971862476045196
0.01574382738156832
6.316383143752421e-15
9.573551045557203e-13
1.812934458037102e-11
1.33351796305767e-10
5.948517009092742e-10
1.954992672363543e-09
5.210360518341656e-09
1.186188567143709e-08
2.380833090355306e-08
4.310235028804741e-08
7.175343893642888e-08
1.117345809667696e-07
1.651342035653529e-07
2.342485906062898e-07
3.213326700281839e-07
4.288163937688047e-07
5.58855173617467e-07
7.134114545496181e-07
8.945945713429973e-07
1.104867355348231e-06
1.347750313338593e-06
1.6277066828348e-06
1.950652832345655e-06
2.322127915334665e-06
2.744021591282687e-06
3.212071646389226e-06
3.713773437894972e-06
4.236756693629335e-06
4.785059256574882e-06
5.368305755091203e-06
5.988891495524181e-06
6.648798416698986e-06
7.349682768684353e-06
8.092720327400161e-06
8.87841413999152e-06
9.706370043970502e-06
1.057501544287201e-05
1.148192478737509e-05
1.242268009219594e-05
1.339023535552376e-05
1.437664365739034e-05
1.536943567517918e-05
1.635120891629928e-05
1.729921243783913e-05
1.818512793567578e-05
1.885262000548806e-05
1.929927679767431e-05
1.954871123880884e-05
1.960592244882028e-05
1.948417325949944e-05
1.926090832020315e-05
1.902019964823792e-05
1.857242531422841e-05
1.721875304917408e-05
1.546047739499064e-05
1.337464193159113e-05
1.106491709257404e-05
8.668578312406144e-06
6.353960930705861e-06
4.29287624434611e-06
2.569625372677568e-06
1.235426436039502e-06
4.269957771743189e-07
1.138098563793616e-07
3.17402173695969e-08
1.421846640798105e-08
1.086297621638982e-08
1.026997217041454e-08
1.017220504432481e-08
1.015700708519145e-08
1.015475276309321e-08
1.015442206234576e-08
1.015437401130204e-08
1.015435829349163e-08
1.015435147434663e-08
1.015433903647309e-08
1.015432978274607e-08
1.015431503132672e-08
1.015430291141437e-08
1.015428593402578e-08
1.015427101899887e-08
1.01542519081367e-08
1.015423446185208e-08
1.015421340624415e-08
1.015419358211225e-08
1.015417087088917e-08
1.015414920725251e-08
1.015412512613936e-08
1.015410167117002e-08
1.015407598025513e-08
1.015405119605747e-08
1.01540266948949e-08
1.01540027682391e-08
1.015397928122678e-08
1.015396387072177e-08
1.015709718632624e-08
1.383212576210273e-08
1.700596254036781e-06
0.0001038636789047057
0.001018063366849335
0.003802774238149711
0.00925500545073356
0.01743780359963538
0.02777396819454124
0.03934788303923204
0.05050520238709131
0.05835633455689773
0.01810368039562829
5.470151391419285e-15
8.291069024549685e-13
1.57024782256817e-11
1.155504312878027e-10
5.160223645422891e-10
1.699821989249907e-09
4.548195918064588e-09
1.041468763298253e-08
2.105847994122336e-08
3.843593184255835e-08
6.449212624863035e-08
1.011139107316611e-07
1.50235716930643e-07
2.139157985180673e-07
2.940578495196512e-07
3.928208646354686e-07
5.125266108608329e-07
6.552116915320723e-07
8.235798696273214e-07
1.020923224421785e-06
1.250862107935117e-06
1.518020849153309e-06
1.828284502695305e-06
2.187437926669369e-06
2.598208726532897e-06
3.057915316896891e-06
3.556615635812117e-06
4.079295075634637e-06
4.623658882884928e-06
5.20369702375642e-06
5.822456170943254e-06
6.482722466541891e-06
7.187175033457167e-06
7.938280102309063e-06
8.738166812732068e-06
9.588480049916809e-06
1.049020127510907e-05
1.144342749734192e-05
1.244708703861952e-05
1.349858705187507e-05
1.45933820431085e-05
1.57243896906822e-05
1.688125818539946e-05
1.804946389243185e-05
1.921053032360883e-05
2.033943677021248e-05
2.140671761373847e-05
2.237263446569377e-05
2.312689376801518e-05
2.349602499374794e-05
2.357071036772265e-05
2.342271139911791e-05
2.310811718527105e-05
2.264386734782203e-05
2.187586849991894e-05
2.013322858099245e-05
1.784300239783186e-05
1.511617999124773e-05
1.211344392755713e-05
9.05654524161483e-06
6.214605786427168e-06
3.814924170226951e-06
1.935949181193089e-06
6.933438754759564e-07
1.70366631418818e-07
3.945123594520367e-08
1.48496444947554e-08
1.079023564923079e-08
1.017632323063369e-08
1.009029373910373e-08
1.007904101426125e-08
1.007764693940577e-08
1.007748012652404e-08
1.007745194912508e-08
1.007744274862148e-08
1.007742947312627e-08
1.007741862099939e-08
1.00774025910372e-08
1.00773885133676e-08
1.007736977087022e-08
1.007735271993801e-08
1.007733155966386e-08
1.007731167800404e-08
1.007728814140533e-08
1.007726563539668e-08
1.007724004905449e-08
1.00772149146629e-08
1.007718759290677e-08
1.007716098603269e-08
1.007713236537529e-08
1.007710431441876e-08
1.007707605545276e-08
1.007705380867159e-08
1.007875317005627e-08
1.123030361131588e-08
4.684561465804438e-07
4.039503502776397e-05
0.0005476305647572788
0.00238958693747944
0.006181333599283901
0.0122372344624983
0.02034633153166984
0.02999291986431401
0.0405897227880084
0.0513328442075497
0.06122698400885227
0.06938557770544654
0.02042184096845955
4.769030523416443e-15
7.228460109350163e-13
1.369113142960557e-11
1.00781642910398e-10
4.504438232361612e-10
1.486340542125342e-09
3.988693926784898e-09
9.173261559342501e-09
1.865150106176719e-08
3.42523021432466e-08
5.781379677480553e-08
9.110469049849695e-08
1.359109668389698e-07
1.941533229800788e-07
2.678102586097647e-07
3.589888919075204e-07
4.700372137454424e-07
6.032956608442007e-07
7.616390828319489e-07
9.484495305880362e-07
1.167539368258991e-06
1.423615632257499e-06
1.722497484139073e-06
2.070167609643956e-06
2.470141534301038e-06
2.921071883667e-06
3.41501916355184e-06
3.935448570382247e-06
4.474790359107323e-06
5.049132072489525e-06
5.662018886943434e-06
6.316445697392941e-06
7.015390349842348e-06
7.761735077414657e-06
8.558178603800418e-06
9.407133992064766e-06
1.031060130730195e-05
1.127000606610804e-05
1.228599498326951e-05
1.335818046580288e-05
1.448482230341628e-05
1.56624209893829e-05
1.688518842609251e-05
1.81443701156496e-05
1.94273900143362e-05
2.071675117581851e-05
2.198875054037873e-05
2.321330464725563e-05
2.435117025530254e-05
2.536038846887858e-05
2.618522235796132e-05
2.666702675810051e-05
2.673035503818191e-05
2.651804350326996e-05
2.60884594291315e-05
2.523767607501474e-05
2.351385404556992e-05
2.113742684863097e-05
1.813141812025232e-05
1.467193510040814e-05
1.101999608261175e-05
7.536196180262665e-06
4.576181634001715e-06
2.295940133001288e-06
7.926670350067713e-07
1.75975768540397e-07
3.661134028297493e-08
1.377301337352066e-08
1.049994971240608e-08
1.007061161278919e-08
1.00185705269577e-08
1.001270267984034e-08
1.00120800935595e-08
1.001200892914371e-08
1.001199480055785e-08
1.001198074898077e-08
1.00119684344677e-08
1.001195153585584e-08
1.001193590365527e-08
1.001191588494054e-08
1.001189646883006e-08
1.001187323602255e-08
1.001185080072668e-08
1.001182531873224e-08
1.001179996733874e-08
1.001177261512644e-08
1.001174639755676e-08
1.00117171213196e-08
1.001168687017233e-08
1.001165464700965e-08
1.001165292416092e-08
1.001501182189604e-08
1.130303051175363e-08
2.903902813300842e-07
2.157656274328634e-05
0.0003403267792385579
0.001631437147474563
0.004455621028222308
0.009115401796570491
0.01552986028888317
0.0234730308635693
0.03265192411327859
0.04269798675356083
0.05317630811172516
0.06360170128636283
0.07355069053282846
0.08292589857302983
0.02227409120289025
4.341235307621868e-15
6.580097095385088e-13
1.246386994459783e-11
9.176988333783531e-11
4.104273083011964e-10
1.356090139582842e-09
3.647587651255572e-09
8.418179340714337e-09
1.719524548485862e-08
3.174530821072039e-08
5.386771473399142e-08
8.52889130909017e-08
1.277178917466997e-07
1.829558995291353e-07
2.528348945284235e-07
3.391929171716456e-07
4.442269359262086e-07
5.704402280337233e-07
7.204739458987676e-07
8.978709045695771e-07
1.106700760305497e-06
1.351857060480659e-06
1.639287559462228e-06
1.975178314628593e-06
2.36355517473001e-06
2.803729901185027e-06
3.288885529613795e-06
3.804315698489195e-06
4.340373464061479e-06
4.908196742169301e-06
5.514315149717506e-06
6.16182403217878e-06
6.85383613052392e-06
7.593418640303327e-06
8.383528948069385e-06
9.226943056435383e-06
1.012616708354528e-05
1.108332345572045e-05
1.210000449464429e-05
1.317708592208264e-05
1.43144905648671e-05
1.55108814823966e-05
1.676325359228164e-05
1.806639887741475e-05
1.941221981776889e-05
2.078886129878314e-05
2.217966211436747e-05
2.356195415216928e-05
2.490572205092656e-05
2.617229513683385e-05
2.731706725887976e-05
2.828507026652292e-05
2.900377321749742e-05
2.939885538366692e-05
2.933844278008085e-05
2.887291400427248e-05
2.776461821865507e-05
2.597341503165333e-05
2.344261911967367e-05
2.016588462383153e-05
1.628446733122229e-05
1.211688335490093e-05
8.114287099446315e-06
4.753521697100306e-06
2.243766282594127e-06
6.869717237230387e-07
1.321544350413969e-07
2.689929574896226e-08
1.204943242503841e-08
1.019324931747147e-08
9.980419276980652e-09
9.957876268414026e-09
9.955658598724599e-09
9.95544528352604e-09
9.955419263365941e-09
9.955403186135703e-09
9.955390009987146e-09
9.955371659131952e-09
9.95535469378399e-09
9.955333105830147e-09
9.955312570682376e-09
9.955288064738898e-09
9.955264283800027e-09
9.955237048975971e-09
9.955210231882325e-09
9.955180625839771e-09
9.955151005512274e-09
9.955124941970291e-09
9.955552462994399e-09
9.980325381157729e-09
1.63280326454372e-08
5.134725670614509e-07
2.24796869065676e-05
0.0002997086636975986
0.001349621974555674
0.003625818198239382
0.007377658324695203
0.01256990189980514
0.01910155193663133
0.02682770093287529
0.03556923510319161
0.04510892389358794
0.055191291480775
0.06553451784881377
0.07586890350655982
0.08601732213571636
0.09601209642877777
0.02369991827023694
3.957487769186924e-15
5.998485421629449e-13
1.136277490061408e-11
8.367905711042368e-11
3.74434620551663e-10
1.238484226940455e-09
3.337455227013539e-09
7.724172442168677e-09
1.58366118092542e-08
2.936342361298386e-08
5.004395873430918e-08
7.954419468707352e-08
1.194876189379255e-07
1.715650798307373e-07
2.375147941597011e-07
3.191287768788508e-07
4.185957232162474e-07
5.384641130546418e-07
6.815271672849439e-07
8.512051082415629e-07
1.051537339282836e-06
1.287489275833516e-06
1.565093416596268e-06
1.890690695304575e-06
2.268461894408167e-06
2.698612447298459e-06
3.175399588474759e-06
3.6856979216703e-06
4.218164474357784e-06
4.779614342848617e-06
5.37902471638965e-06
6.019571947984505e-06
6.7044651457056e-06
7.436887229060267e-06
8.219941559207001e-06
9.056598820757994e-06
9.949634319568943e-06
1.090154779624938e-05
1.191445919895102e-05
1.298997463050504e-05
1.412901556528808e-05
1.533158894370572e-05
1.65964631422104e-05
1.792072738626091e-05
1.929921342026933e-05
2.072374726432968e-05
2.218220837455227e-05
2.365739574457529e-05
2.512570569426054e-05
2.655564252005637e-05
2.790623197697447e-05
2.912951979003242e-05
3.016333038041792e-05
3.093418486987902e-05
3.135513119843175e-05
3.132984875740009e-05
3.075719563676364e-05
2.953181387800228e-05
2.756232762501725e-05
2.47777415608473e-05
2.116230835590173e-05
1.685893677307078e-05
1.224161240716395e-05
7.877997213476607e-06
4.344511021628529e-06
1.828597500372642e-06
4.558990229745191e-07
7.605833548820853e-08
1.786908637563961e-08
1.077255344610849e-08
9.992678065720997e-09
9.91390164033409e-09
9.906553399822071e-09
9.905908290807276e-09
9.905848051010255e-09
9.905828896331816e-09
9.905814600358123e-09
9.905795341064647e-09
9.905777315272887e-09
9.905754661585273e-09
9.905732413857638e-09
9.905706154798385e-09
9.90568035727142e-09
9.905651851414765e-09
9.905645665995696e-09
9.906302082526385e-09
9.91840969613413e-09
1.11003343808664e-08
1.003051367534564e-07
2.153343518865038e-06
5.038147119584672e-05
0.0004051986699318461
0.00144360731657422
0.003482868173221992
0.006670095028315499
0.01100016091418377
0.01644327624458741
0.02292661836340183
0.03036587169803532
0.03865889157524538
0.04768113298290048
0.05728276081255685
0.06729458357456493
0.07754615023258542
0.08790246511493832
0.09832486912954838
0.1089581303606032
0.02482486167887702
3.697971009504662e-15
5.605144626447668e-13
1.061806803100745e-11
7.820629669531809e-11
3.500820828831043e-10
1.158871922865123e-09
3.127347495024032e-09
7.253553808485206e-09
1.491467859321015e-08
2.774763127046421e-08
4.745526279548441e-08
7.567161954277475e-08
1.139791956815441e-07
1.640274237237149e-07
2.275590167498066e-07
3.065185689375898e-07
4.029386854953475e-07
5.192999362288694e-07
6.584674194392226e-07
8.236266866297287e-07
1.018446756384927e-06
1.247653875249658e-06
1.517157902353815e-06
1.833420992455792e-06
2.201235269614498e-06
2.621525958063025e-06
3.089474482295979e-06
3.59326466177431e-06
4.120384104450302e-06
4.67417687300527e-06
5.265451714731929e-06
5.897436641815123e-06
6.573377971415981e-06
7.296492268521786e-06
8.069915725456575e-06
8.896660459948677e-06
9.779569301704376e-06
1.072126136142606e-05
1.172406291691673e-05
1.278991817579071e-05
1.39202733681442e-05
1.511591146377138e-05
1.63767012678562e-05
1.770123809633526e-05
1.908635689645247e-05
2.052648626831547e-05
2.201282465692406e-05
2.353231895225435e-05
2.506642067196893e-05
2.658963261806869e-05
2.806788771618741e-05
2.945683092116387e-05
3.069983210521744e-05
3.173105386707417e-05
3.247603182350162e-05
3.285483722775741e-05
3.275852899525867e-05
3.206364112026498e-05
3.065535563081585e-05
2.843340601239204e-05
2.532032496787994e-05
2.129841345619489e-05
1.654100436873191e-05
1.152156150691768e-05
6.974172552929356e-06
3.502901618485037e-06
1.213290912031249e-06
2.308656136685581e-07
3.691289147772594e-08
1.271749988243498e-08
1.013723952467974e-08
9.886359048234897e-09
9.863914095125243e-09
9.862051084039847e-09
9.861899040998362e-09
9.861873010272486e-09
9.861856561594595e-09
9.861836055994694e-09
9.861815670714618e-09
9.861794505303837e-09
9.861832606494819e-09
9.862517200240134e-09
9.867933030229333e-09
9.943065158607125e-09
1.424373664462627e-08
1.37867872890819e-07
1.367100595892525e-06
2.018434564423597e-05
0.0001875043892851398
0.0007549080239464292
0.001954415531224685
0.003948297723345789
0.006798996064574057
0.01053991327503141
0.01516326183336917
0.02064325903303893
0.02694843716069773
0.03403719169078123
0.04185600643377553
0.05033512224756723
0.05938613058026573
0.06890270147872732
0.0787665929002675
0.08885999804902224
0.09908343122514633
0.1093715551671018
0.1196805298207657
0.02572754695482428
3.467079284970959e-15
5.255198386507772e-13
9.955494900863388e-12
7.333600632610524e-11
3.283965531709642e-10
1.087885429178695e-09
2.939589702818739e-09
6.831682356795592e-09
1.408525582541666e-08
2.628933891753375e-08
4.511468856940645e-08
7.216909060930518e-08
1.089942053921825e-07
1.571730591561581e-07
2.183733295822394e-07
2.944678893827089e-07
3.874459999688311e-07
4.997559341854728e-07
6.342546999946301e-07
7.941524412425162e-07
9.832209763316486e-07
1.206161211079984e-06
1.468859571880697e-06
1.777822288272128e-06
2.138021788864849e-06
2.550716431924324e-06
3.011944534450859e-06
3.51092748844721e-06
4.034169912502234e-06
4.581888617578631e-06
5.166510768402298e-06
5.791311748774837e-06
6.459603186261379e-06
7.174679827331181e-06
7.939765216360925e-06
8.757966592931102e-06
9.632232477551309e-06
1.056530784252508e-05
1.155968212996663e-05
1.26175265162549e-05
1.37406140494985e-05
1.49302005774542e-05
1.618682836646415e-05
1.751002838018286e-05
1.889790441367096e-05
2.034657010641104e-05
2.184941566309774e-05
2.339617879526863e-05
2.497181821468002e-05
2.655518187816585e-05
2.811747045216911e-05
2.96205636483926e-05
3.101533607624745e-05
3.224016036775729e-05
3.32313168551067e-05
3.390517907372972e-05
3.416250082671964e-05
3.388390858141277e-05
3.294780244649359e-05
3.122505721699069e-05
2.861008154011315e-05
2.502615004580888e-05
2.048813895821679e-05
1.526471053121503e-05
9.994425482665522e-06
5.556536831848281e-06
2.410498109789039e-06
6.140765216494736e-07
9.166337401257134e-08
1.835778900467288e-08
1.062102935783689e-08
9.891062662796362e-09
9.827944724389552e-09
9.82292918995889e-09
9.822657883312999e-09
9.823154812558914e-09
9.825262068856319e-09
9.833368770805897e-09
9.870573981402577e-09
1.031441218962445e-08
2.101243430265478e-08
1.401116458130984e-07
8.058941863285748e-07
4.348054875487283e-06
3.879578242897206e-05
0.0002193965928274078
0.0006995982349930675
0.001603401062825777
0.003026027388683497
0.005043447595009529
0.007704696889319725
0.0110338111168142
0.01503995834425577
0.0197275421200266
0.02509478466005257
0.03113442271320287
0.03783245237148115
0.04516537483046634
0.05309760037498972
0.06157931186740539
0.07054575727821215
0.07991878072788274
0.08961134813209841
0.09953511193717041
0.1096093566208328
0.1197661151547869
0.1299408837313893
0.02648284658674609
3.25547151287537e-15
4.934474929416648e-13
9.348196374589594e-12
6.887043165148298e-11
3.084943537377204e-10
1.022607982752031e-09
2.766325118105218e-09
6.440241101093266e-09
1.330985354750978e-08
2.491355472569836e-08
4.288503057716242e-08
6.880204727572081e-08
1.041651817414455e-07
1.504921538706117e-07
2.093706230068788e-07
2.825881152057533e-07
3.720690973465587e-07
4.802003404284903e-07
6.097924747244425e-07
7.640348776459344e-07
9.467058976836101e-07
1.162554175160415e-06
1.417607089348999e-06
1.718419897953588e-06
2.070086926203921e-06
2.474211884754517e-06
2.927561655938517e-06
3.420393658203432e-06
3.938413123071217e-06
4.4788380086427e-06
5.055515943585334e-06
5.671769287546671e-06
6.331003264672745e-06
7.036630921727694e-06
7.792012871360556e-06
8.600406792862301e-06
9.464920207258553e-06
1.038846301669603e-05
1.137369908307968e-05
1.242299705160095e-05
1.353837939738535e-05
1.472144197844966e-05
1.597319916689816e-05
1.72938355944671e-05
1.86823533353404e-05
2.013608684294071e-05
2.165005715175681e-05
2.321616198308773e-05
2.482217458303498e-05
2.645052209309501e-05
2.807686254045105e-05
2.96684738960429e-05
3.118253568234575e-05
3.256445234643752e-05
3.374954587414193e-05
3.466294211965636e-05
3.520886971531961e-05
3.527674640773351e-05
3.474128368257878e-05
3.34724041107776e-05
3.13469197362876e-05
2.824861926284668e-05
2.410995173608644e-05
1.898824431457835e-05
1.330669337650398e-05
7.975397941798682e-06
3.923870302426237e-06
1.321067377617214e-06
2.283979304610919e-07
3.297885970490666e-08
1.193587768879462e-08
1.006228601712781e-08
1.02120997800077e-08
1.285756192379536e-08
3.078846060931684e-08
1.16273384998319e-07
4.047190350100869e-07
1.183244898200628e-06
3.161032646184461e-06
1.176210837906987e-05
6.144411480309427e-05
0.0002230540110290161
0.0005648869178325977
0.001140241835448701
0.002003007033607846
0.003215018418800005
0.004827507509106941
0.00687893462949242
0.009398285266386384
0.01241013117753416
0.01593551887314773
0.01999180651854248
0.02459334152918282
0.02975163397323213
0.03547419564158448
0.0417631549716923
0.04861355694702724
0.05601154524726024
0.06393277585817415
0.07234144867756394
0.08119048498278313
0.09042344153485744
0.09997874625722207
0.1097966801460721
0.1198293191585789
0.1300540809273072
0.1404954349017231
0.02711702621890706
3.047406654717543e-15
4.619103396094908e-13
8.750957871920581e-12
6.447741163189602e-11
2.889005196814026e-10
9.582427200540648e-10
2.595020759004664e-09
6.05161543520009e-09
1.253561290893883e-08
2.353011922982798e-08
4.062531517498014e-08
6.536222242582722e-08
9.919482219600804e-08
1.435739469677172e-07
2.000186400037864e-07
2.702757414013032e-07
3.563794766522451e-07
4.606042512639182e-07
5.856619587597184e-07
7.347037339538847e-07
9.114838384823244e-07
1.120724946655246e-06
1.368374343787486e-06
1.661162761416019e-06
2.004457860000492e-06
2.400272643768145e-06
2.84607228853274e-06
3.333155842248391e-06
3.84654542296703e-06
4.380545278671316e-06
4.950361125833676e-06
5.559421439811948e-06
6.211279010646455e-06
6.909534529875385e-06
7.657776531447224e-06
8.459530234276521e-06
9.318208979445403e-06
1.023706466684823e-05
1.121913718405967e-05
1.226720320380286e-05
1.338372277866204e-05
1.457076161368541e-05
1.582984850020844e-05
1.716174587526679e-05
1.856612046028404e-05
2.004108941687132e-05
2.15826290915164e-05
2.318382139713332e-05
2.48339252037772e-05
2.651724827841743e-05
2.821179361008178e-05
2.988771095886186e-05
3.150561937284602e-05
3.301489427782141e-05
3.435186028842044e-05
3.544400329087358e-05
3.620252053717854e-05
3.651934687320961e-05
3.626511346686025e-05
3.530690322821541e-05
3.351137310503343e-05
3.07549177026168e-05
2.693771378489029e-05
2.20579798029881e-05
1.641119268361831e-05
1.063715486149977e-05
5.72941877919885e-06
2.479367973872001e-06
1.180188603881419e-06
1.541820982552041e-06
2.687948647432543e-06
4.775975913725683e-06
1.047987597100945e-05
3.102121212096517e-05
8.792493475503047e-05
0.0002020040029461305
0.0003897688720749197
0.0006700626861479847
0.001065615202969851
0.001603302400710044
0.00231432377601515
0.003231423406644775
0.004385248340974715
0.005803323639906995
0.007512032681004954
0.009537632888902237
0.01190560222731794
0.01464024214198923
0.01776456390371873
0.02130073351195798
0.02527001580003872
0.02969228651131261
0.03458542144579425
0.03996450535254636
0.04584079187350902
0.05222050930022326
0.05910359482952738
0.06648250253228641
0.07434131093836538
0.08265544793170905
0.09139246006098262
0.1005143654517669
0.1099822478993758
0.1197639202059795
0.1298459161692555
0.1402523654481145
0.1510769600428026
0.02764796169344496
2.985222659724607e-15
4.524840185966717e-13
8.572404823717673e-12
6.316331862517492e-11
2.830323737563018e-10
9.389246937366088e-10
2.54343801313864e-09
5.934071894775515e-09
1.23001244560561e-08
2.310641118167626e-08
3.992708988539076e-08
6.428777720728508e-08
9.762555192654898e-08
1.413814008854326e-07
1.971340483301414e-07
2.666050421348391e-07
3.517623976115687e-07
4.547083522855433e-07
5.780684430209501e-07
7.249726235984435e-07
8.991913472856632e-07
1.105383473599652e-06
1.349253234000703e-06
1.637167207643566e-06
1.97473578417385e-06
2.364276100785667e-06
2.803631900171071e-06
3.284701448254918e-06
3.792297570081737e-06
4.31920883326043e-06
4.881156888569499e-06
5.481577929084289e-06
6.124053680975707e-06
6.812239715043713e-06
7.549806178527412e-06
8.340387289129301e-06
9.187531811292839e-06
1.009465146127538e-05
1.106496709867086e-05
1.210145558062408e-05
1.320679751091578e-05
1.438330312960002e-05
1.563277408661817e-05
1.695628061739747e-05
1.835385473390871e-05
1.982408799884561e-05
2.136362150904417e-05
2.296652166243317e-05