/*--------------------------------*- C++ -*----------------------------------*\
| =========                 |                                                 |
| \\      /  F ield         | OpenFOAM: The Open Source CFD Toolbox           |
|  \\    /   O peration     | Version:  v1812                                 |
|   \\  /    A nd           | Web:      www.OpenFOAM.com                      |
|    \\/     M anipulation  |                                                 |
\*---------------------------------------------------------------------------*/
FoamFile
{
    version     2.0;
    format      ascii;
    class       volScalarField;
    location    "0.00000056";
    object      omega;
}
// * * * * * * * * * * * * * * * * * * * * * * * * * * * * * * * * * * * * * //

dimensions      [0 0 -1 0 0 0 0];


internalField   nonuniform List<scalar> 
44064
(
1142153.709692877
209441.7966767037
73059.50286697669
35121.13705394728
20308.88321918599
13281.25678523497
9527.889736180699
7367.06612781542
6056.228034891713
5224.398167211159
4670.589837560233
4281.996471608028
3989.762398788367
3750.733478740337
3539.044527296091
3335.99062921443
3128.856120932584
2907.523240757986
2667.81598422586
2416.216311954186
2164.251521519735
1921.851661759363
1695.73974233771
1489.783684264036
1305.561479832246
1142.887454594153
1000.3650151911
876.1595502124999
768.1720987079775
674.2971974870919
592.5505996471009
521.2289024908995
458.822686276211
403.8325140648746
354.9915953738152
311.3669364577896
272.2063497708803
236.9146898983067
204.9375193773156
175.865869665978
149.6091146455913
126.1121621232885
105.1928849566381
86.73845151703901
70.64720504540821
56.82193609851419
45.15483580433031
35.52672814329659
27.79734708655944
21.79144376296088
17.28934105634979
14.02429227334186
11.73103420648448
10.19450875739058
9.228062093470561
8.647431184888539
8.31556289499442
8.139802019053082
8.056124246712484
8.017636406992681
8.000080471294782
7.993059955702192
7.990301395370055
7.989230528685338
7.988861892099608
7.988741234961188
7.98869870445296
7.988684338457008
7.988679555564017
7.988677592592512
7.988676461695563
7.988675691866558
7.988674919618479
7.988674060272933
7.988673081265395
7.988671904172628
7.98867061583486
7.988669116802384
7.988667544159613
7.988665741600547
7.988663916893652
7.98866189108081
7.988659879464755
7.988657663742845
7.98865552880002
7.988653250399042
7.988651003830809
7.988648702066751
7.988646419086034
7.98864423264027
7.988642519543045
7.988640911938014
7.988638727098231
7.988636338706706
7.988635174652238
7.9886343210207
7.988633367680368
7.988632494669574
7.98863198099518
7.988631760904243
7.98863070160767
7.988568768802261
7.987023887741707
7.977644043451056
7.968027284465554
8.081297596884243
8.127983250147533
8.234105887738426
1142163.033203825
209363.9747912024
72945.09821946312
34959.31231332347
20092.23871281009
13008.90566050251
9204.664113926303
7002.845646750889
5664.239339422178
4817.556543644584
4257.077940455294
3861.250791895057
3556.102150198493
3298.466973704603
3061.785151877409
2831.392785323824
2601.962784805083
2373.502446906518
2148.537579133494
1930.224221930289
1722.184761343492
1527.018246151365
1347.982341270651
1187.747322111217
1047.217859759207
926.5424904041685
824.8615739635718
740.0028205724575
667.9340702642785
604.9790266294665
549.3967144216589
499.9491785943164
455.7289020661764
415.9968179993153
380.1292260862096
347.65014054899
318.10785942027
291.0878226589305
266.1650159194506
242.8754347695201
220.8183688643641
199.8216224185007
179.9741231479028
161.3105404998176
143.6448493091679
126.7284072075234
110.6490153032803
95.53418181908303
81.18779297390057
67.6057020578212
54.95396709627961
43.44653926982085
33.33533077668984
24.88331770084931
18.23602945722735
13.3903626808744
10.1703241315548
8.281253967043929
7.344331717579446
6.941966922313433
6.80072668934006
6.755236354488113
6.740708537086104
6.73662672511872
6.735443449574928
6.735090323100927
6.734996131261717
6.734963967383798
6.734947134996454
6.734930164097809
6.734912098635339
6.73488784139502
6.734859752870737
6.734824619564157
6.734784958134022
6.734738034691809
6.734686210690288
6.734627167631198
6.734563023061783
6.734491768985345
6.734415305021147
6.734332067365087
6.734243809233104
6.734149280464227
6.734050038592786
6.733945343421711
6.733836562851541
6.733723006571581
6.733606030157345
6.733485260335291
6.733363911561255
6.733242612085195
6.733118274118191
6.733004953761307
6.732910989054147
6.732825995304966
6.732747246716704
6.732674875697141
6.732623297196511
6.732582600760286
6.731837130653377
6.72745025872177
6.724123423327221
6.755876481556991
6.816610424643854
6.887414232981925
6.933112658004006
6.992159537746765
1142162.755061465
209362.3450868965
72940.42646928316
34949.50719523701
20074.86791661393
12981.17843544395
9163.415778520268
6944.55420053102
5584.998208465424
4712.992335825883
4122.549708179508
3692.575274235003
3350.772867770663
3055.924621297891
2789.877711390745
2541.776475050264
2309.042578862156
2090.602616991212
1887.002665043118
1697.371482144223
1520.412231664244
1355.845357097973
1203.780365859857
1065.322245146168
942.2044741830781
835.5973724224796
745.8522552621901
671.0991841136992
606.9118201367592
550.6074585574103
500.784289958505
456.4249085236714
416.7251222352874
380.9972081601258
348.7442236224888
319.5359340365254
293.0231490549186
268.9275964436058
247.0164749962777
227.1110961904724
209.0459701075964
192.615078621193
177.6199934673682
163.8134162806832
150.9064347204518
138.5781151446519
126.5583308806648
114.7239875337599
103.1398308427699
91.85763489730243
80.93773700875725
70.39488635584233
59.98359795000218
49.73846102028719
39.87178522789821
30.71873100276677
22.65088091990094
16.09487172084692
11.31701225074676
8.28628602102453
6.725572049692949
6.119833265807523
5.941100411293139
5.896553292475216
5.886482404702782
5.884296814351817
5.883824115380344
5.883704662790405
5.88365723498922
5.883619391901886
5.883584480210041
5.883543560866203
5.883500631140137
5.883450118187973
5.883396433493079
5.883334805653832
5.883269292217952
5.883195724570813
5.883117747756506
5.883031728780635
5.88294089262687
5.88284222988911
5.882738566961351
5.882627419255419
5.882511275583058
5.882388336836583
5.882260642089564
5.882126941303037
5.881989220232054
5.88184656469368
5.881705029081804
5.881564988701332
5.881421652817399
5.881288536409197
5.881172849652811
5.881060059158601
5.880962287162415
5.880883589604299
5.880576647106325
5.878358104683619
5.877044698889181
5.898513328031846
5.950408986832769
6.017041149090475
6.12336724797692
6.280879204395069
6.50763370184006
7.089847313504477
1142162.273707798
209359.6493178353
72932.66754141556
34933.4221243834
20047.1287578632
12938.61738044922
9103.359922650887
6865.354796321003
5486.594484086226
4597.106180741638
3992.421548079602
3552.619670519296
3206.318028787702
2912.49402724689
2650.836500458568
2409.820065812018
2185.605880463166
1977.122483326076
1783.801418032587
1605.219358151098
1440.362833759226
1288.402631699085
1148.365812734677
1020.211591626026
905.0076342440881
804.0238411618859
718.1186638048741
646.2025604428256
584.6170359643278
530.3976775118613
482.2763005417279
439.31543101735
400.7845057234197
366.1008844499364
334.7908552388208
306.4625044716265
280.7869445929153
257.4703381367353
236.2682249575517
216.9757104813156
199.386658068185
183.3424713597538
168.7126230289991
155.3849805186805
143.2624148411751
132.252972062982
122.1734939029124
112.823496936899
104.0008099287315
95.50405274414139
87.14759079245914
78.83547252569862
70.60402930410514
62.54467510648042
54.52987989233034
46.30491264484143
37.89066389036535
29.57390168985271
21.83428645346673
15.23948147880571
10.3152396277709
7.260026084406437
5.84540415140196
5.3983630260887
5.294950010349217
5.274692265616951
5.271059362979186
5.270421168787178
5.270287086516433
5.270229256314038
5.270183943350089
5.27013450399063
5.270083123396296
5.270024389359801
5.269962216575204
5.269892089500205
5.269817764533054
5.269735310268267
5.269648104857731
5.269552720354245
5.269452145124854
5.269343554488776
5.269229613879739
5.269108007341846
5.268981063369386
5.268847168433973
5.268708352454037
5.268563400473854
5.268414289668337
5.268260345049874
5.268106872010117
5.267954350065093
5.267799208312776
5.267652595463455
5.267521678109166
5.267396215927657
5.267209133302737
5.266100067794893
5.264673525885592
5.278839765279064
5.319105818771855
5.383481504393936
5.501127173714075
5.706305998441181
6.0767159747185
6.774118756011224
8.206977183154592
13.348246246509
1142161.729881704
209356.6375753807
72924.07123897305
34915.8850505973
20017.55861122222
12894.53865740082
9043.329198988436
6789.485604295456
5397.018306707741
4497.966762624051
3889.199681829949
3451.110230341725
3111.69568585063
2828.857039888541
2581.497872411624
2356.028016966355
2145.658217981802
1948.925103229712
1764.173526792453
1590.743525336312
1428.899758541565
1278.513202655326
1139.21990277187
1011.277793195861
895.8683982305751
794.2934971703053
707.368489850759
634.7787702235413
573.550714634012
519.8549334584333
472.3265817991766
429.9740873545808
392.0350376310391
357.9084098901122
327.1100279358071
299.242368245948
273.973556314108
251.022526824526
230.1484684894494
211.1430369254954
193.8244280056921
178.0334966629649
163.6306859360279
150.4935503666979
138.5056366096404
127.568394163432
117.5800235832225
108.4664022413588
100.1700000163557
92.56570939661184
85.4761089450701
78.71574248500704
72.13567038998595
65.65903684972506
59.25748225563206
52.9057133256096
46.45988526203889
39.61195999876814
32.31274913750574
24.83475863018406
17.75939862139998
11.85433857157341
7.769481019699056
5.673521724415054
4.9858561232711
4.837666483609638
4.812280786886642
4.808375643838589
4.807788770948991
4.807670046956796
4.807613719818995
4.807560411855427
4.807505390384136
4.807443737172679
4.807378118525162
4.807304972486627
4.807227108390433
4.807141396016388
4.807050447571686
4.806951531485965
4.806847090829991
4.806734647351155
4.806616383544323
4.806490289992915
4.806358587403951
4.806219411608176
4.806074946688208
4.805924827664209
4.805770469356657
4.805611043335099
4.805450654326644
4.805289967369382
4.805127591137927
4.804974400569876
4.804796295119413
4.804097901324822
4.802695332369649
4.811084189973529
4.840146979742609
4.88625575102131
4.955956396162429
5.078430534803298
5.277114626894239
5.593183315475009
6.095519838211706
6.897115047351654
8.173705024953358
11.21804879800601
1142161.320735821
209354.4431368209
72917.72850100134
34902.92079577423
19995.72861815586
12862.09424152237
8999.334921066193
6734.222483142064
5332.36376792306
4427.456404012747
3817.539962455443
3383.268978029767
3051.860445116843
2779.535643998544
2542.226435399348
2326.409856007708
2124.677716695114
1934.528075486306
1754.443608606569
1584.124033726603
1424.041903132323
1274.440990352629
1135.352583566518
1007.201404766795
891.2002773277816
788.6980935957812
700.5322826642479
626.9673002287094
565.644314184776
512.1343846457494
464.9262548909829
422.9694712217822
385.4639269795001
351.7838189108088
321.4283466960721
293.9886937692966
269.1254137490436
246.552583165995
226.0263965018727
207.3367659843371
190.3010035479286
174.7591308192609
160.5704270796712
147.6107894822381
135.7706259812307
124.9533329743805
115.0736172685471
106.0501498227293
97.81163648514058
90.2669853845408
83.34898450592561
76.9604520799391
70.98688836627974
65.29822883417914
59.81668747547374
54.50132847187926
49.24679749129519
43.90670633371175
38.2920064316796
32.0881904400503
25.3182133113891
18.42426111685804
12.24496277581448
7.725456741074345
5.35793812778144
4.614242049599802
4.470959262141103
4.449521326329933
4.446641652436154
4.446247982673158
4.44615893985778
4.446100726304585
4.446043359606875
4.445980362762466
4.445913062313297
4.445838757057103
4.445759408433322
4.44567262610718
4.445580360011601
4.445480181033155
4.44537389075363
4.445259933481839
4.445140169327314
4.445013179200213
4.444879986687619
4.444740871233436
4.444596268521938
4.44444396776731
4.444286360610296
4.444124564482175
4.443963896216669
4.443803692284049
4.443605239113341
4.443009216579805
4.441702767952895
4.446329866428081
4.465874561461346
4.497803538781002
4.544911295964358
4.620095115186193
4.733735168949172
4.904893159871567
5.156263503902101
5.520221469052867
6.042399408678609
6.782655150176139
7.804433739685016
9.949388516282411
1142161.014978681
209352.7771242646
72912.92791752129
34893.07004229433
19979.00448316832
12836.94066002877
8964.677190691946
6689.7630022702
5278.902769661664
4367.03133809849
3753.182552006116
3318.445421667384
2989.850240943881
2722.954728494751
2492.841396235885
2285.88148632072
2093.362586298667
1911.090581005632
1738.05442080903
1573.334669220226
1417.226374612918
1270.186790034626
1132.561218483993
1005.048109921729
889.0580083185496
786.1696069790233
697.344802731054
622.870814700319
560.8582117007265
507.298110199567
460.1729171346129
418.3803652626272
381.0882692275546
347.650095382755
317.5509990246801
290.372154927399
265.7666820739059
243.4429354796891
223.1526547613048
204.6822791009424
187.8464887622366
172.4833497963269
158.4507356226996
145.6235384135162
133.8914310310337
123.1569643023747
113.3337896832181
104.3447999025659
96.12032578026201
88.5959387839375
81.69909517609163
75.36175996177562
69.5318439579578
64.13260957909328
59.08435388763767
54.31265087589715
49.73611854247353
45.23801413453673
40.67650146915262
35.85493375254682
30.45119355511736
24.2950789466661
17.7077634110516
11.58430147563573
7.086155682899018
4.871672366565392
4.268661537324239
4.170061318623545
4.157283101237216
4.15575989964118
4.155551934624666
4.155480996175639
4.155421707316031
4.155357692038956
4.155289782134184
4.155214854721305
4.155135040558347
4.155047768885257
4.154955041046091
4.154854605808094
4.154748420214566
4.154634703205638
4.154515129700294
4.154388190910717
4.154255344659064
4.154115978455733
4.153970312669497
4.153817744407706
4.153661697570637
4.153498939283736
4.153269895661183
4.152611681393198
4.151523926314035
4.155272500248959
4.169575736720926
4.191738446365581
4.224537262550783
4.274435743781797
4.346499828951748
4.449718247732695
4.594441279397266
4.794725182593908
5.068518376671854
5.439179543474326
5.936322055351273
6.594818503955887
7.450070027602732
9.225753304665016
1142160.769617549
209351.3886516314
72909.01057241262
34885.0924601619
19965.5329645794
12816.78444812214
8937.057687433835
6654.536574606971
5236.806255102785
4319.813349900012
3703.458163817707
3269.267511513355
2944.146660257627
2682.989921041115
2459.833954464026
2260.057208132952
2074.230687817598
1897.663175124867
1728.955389352736
1567.640508428147
1414.073483791802
1268.707967750798
1131.995209436093
1004.780160190958
888.6982808443524
785.3417120431722
695.7814933218768
620.3547478429274
557.595284034138
503.8730570854366
456.7208202150126
414.9846114686202
377.8010509335537
344.5042586919276
314.5669059945579
287.5616471594681
263.1353619721776
240.9915189652244
220.8778126547139
202.5772257829298
185.901424268172
170.6858818709483
156.7863627886997
144.0762037168265
132.4440834449394
121.7921201825102
112.0341742079176
103.0941803368213
94.90452358030349
87.40445028159647
80.53849055032386
74.24506458223011
68.47310162068241
63.1689832504409
58.27925115473091
53.742626429739
49.48392806863328
45.41540348089494
41.41343744122095
37.34507819251273
33.01858340169353
28.10251090706086
22.34291198495848
16.01467762800086
10.13510855742119
6.05233639277581
4.3408144729394
3.972540959415102
3.922661108800186
3.917008977861027
3.916386490563688
3.916276867893146
3.916213770847134
3.916149307004395
3.916081206378641
3.916006414667303
3.915926738626009
3.9158398820264
3.915747636954916
3.915647831572022
3.915541956122076
3.91542863005845
3.915309405740684
3.915183126368435
3.915050614588632
3.914912428667897
3.914767146019392
3.914592117582016
3.914225188516514
3.913407038161135
3.913052438602277
3.918481234285138
3.930763029951355
3.946302638969442
3.97021519903249
4.004879977911019
4.053726969229325
4.12132408512887
4.21289940861273
4.335354591496206
4.497295820049595
4.709615934905891
4.985890378675035
5.34274450182949
5.799648617242588
6.377270861239377
7.092834283116331
8.519163090492373
1142160.573307499
209350.4700808927
72906.15916372451
34879.13887757433
19955.38354598244
12801.52947902672
8916.08875752034
6627.708288292843
5204.612750295236
4283.492141511257
3664.894283628031
3230.668972931918
2907.580537868731
2649.909102707302
2430.702874270829
2233.917814385487
2051.45741567156
1878.354846405351
1712.609702983817
1554.12225661154
1403.4435827483
1260.832338331697
1126.523599472866
1001.160964761739
886.2118916344339
783.3499881659945
693.7938787248268
617.9919232896488
554.8738588834473
501.1794182418886
454.1072669109014
412.4763304453988
375.4100847274677
342.2361616253499
312.4242122850839
285.545455617908
261.2458473347247
239.2278771021057
219.2379750716075
201.0575357500156
184.4964075800451
169.3881696830088
155.5868097964154
142.9641842876509
131.407923460139
120.8196058944887
111.1130766671208
102.2128258682637
94.05248949384833
86.57336002965529
79.72290617793996
73.4532912345736
67.7204626655209
62.47377502814586
57.65591030486036
53.19924645986143
49.06061555358607
45.18968002389367
41.50028439425584
37.87111469452127
34.16409260095053
30.16818184620334
25.50656560912421
19.90318453325443
13.72879267872182
8.252373555287987
4.953746686269395
3.905384984658837
3.736775382558504
3.717657420140301
3.715722631839395
3.715496684852518
3.715423722074587
3.715358642373732
3.715290420864101
3.71521598586152
3.715136386356514
3.715049956868618
3.714957740417231
3.714859194726603
3.714755362681514
3.71464427205
3.714525917853639
3.714396076412461
3.714223361252052
3.713883968802103
3.713277787778126
3.712664910640128
3.715688617992321
3.724195148938943
3.733269093852706
3.745395179827564
3.763800203738415
3.789199440998253
3.824144396484388
3.871089045603914
3.933043419215108
4.013752909446023
4.11780910244488
4.250940207183601
4.420253268468244
4.634552412834331
4.904674606696251
5.243848349965609
5.668095871470154
6.197013669992015
6.856536130030428
8.246051762606724
1142160.403014961
209349.5554945308
72903.51323117671
34873.70044522421
19946.15133881707
12787.64764064301
8896.946673701681
6603.071457906528
5174.774455623582
4249.380786733547
3628.039631682895
3192.995180839279
2871.090527375241
2616.352794590123
2401.266006679742
2209.202906130318
2031.519188393358
1862.886550907385
1701.051991157993
1545.765804755596
1397.460838333176
1256.568601166044
1123.446644203754
998.8214039272972
884.237784839832
781.4595132447363
691.7113837582058
615.4959504461575
552.043520465345
498.4096230543281
451.4685290099277
410.0025856117063
373.114372251655
340.1199195358613
310.4828589789806
283.7717045494406
259.6315461509813
237.7648738529693
217.918363882905
199.8735427897981
183.4401046670764
168.451160602372
154.7599904487976
142.2376427071875
130.7709671549356
120.2608892143261
110.6208156348209
101.7750987516511
93.65749623780803
86.20965780942676
79.3797080140105
73.12080611098428
67.38963459154036
62.14474767278882
57.32633061708692
52.88966224416333
48.79078306091057
44.98815016731972
41.41686822012117
37.99834432673102
34.6073865035865
31.10223756028797
27.24861526658121
22.62639153287468
17.00310797784727
11.01971491147911
6.284589097703652
4.085341935139286
3.608414141349472
3.550388199115793
3.54469694090383
3.544146464165289
3.54404758723649
3.543980859071736
3.543912817387992
3.543838912837948
3.543759618429832
3.543673444978046
3.54358077519932
3.543474305445313
3.54331830550343
3.543059266536307
3.542644728333708
3.542030794969391
3.542516766062965
3.547521781338159
3.554751614611807
3.559321343945783
3.566579068615353
3.577862282199959
3.59275675315597
3.612570633143135
3.638898471819902
3.673206562385813
3.717365542082094
3.773581846444388
3.844524334361033
3.933451306113837
4.044349657752519
4.182114583061389
4.352759405636773
4.563670524910657
4.823918615773438
5.144664446937816
5.53977151734261
6.026948225589355
6.630225655690938
7.895797023679725
1142160.255862667
209348.7639681656
72901.21257091613
34868.9793971258
19938.14268708717
12775.61129186774
8880.354454472663
6581.716199777165
5148.896970737263
4219.763639778265
3595.991372005579
3160.1911220159
2839.315492825307
2587.218518840243
2375.938050025089
2188.342943333728
2015.270417244415
1851.035128920302
1693.123309627076
1541.113244101995
1395.35195375105
1256.242681654438
1124.13783284656
999.9412521584011
885.367666337008
782.3020770929421
692.0327238201663
615.119000055587
551.0779976192263
497.2753618598528
450.2634855909729
408.7823602853058
371.9082442800647
338.9418319903409
309.3382569784135
282.6617832695785
258.5558473121021
236.7227584211487
216.9096825238616
198.8987158590868
182.4997860086715
167.5457436554724
153.889203267176
141.4002857424914
129.964793108543
119.4826286999584
109.8664095026104
101.0400888787076
92.93774614157438
85.50198163265136
78.68206690495053
72.43255552059584
66.71198249647099
61.48138182532515
56.697715177376
52.31349186716524
48.28984838666918
44.58339338498803
41.14581827209444
37.91155656720073
34.78624454300974
31.64561776914125
28.31489903525287
24.48036356069089
19.66122631211994
13.84148174444489
8.214891381353786
4.666242545576292
3.569758675619662
3.412580664224134
3.397177206064105
3.395814816822397
3.395649657880042
3.395560080159906
3.395446957880208
3.395280218262844
3.395044735508942
3.394724849237853
3.394316343974663
3.394301168468048
3.397253430495717
3.403382401304928
3.406605737093642
3.408549524868111
3.412137961413584
3.418304235114092
3.426411625853989
3.436142236428177
3.448735239609879
3.465088732171141
3.485925414444982
3.512224994321475
3.545179600414642
3.586174290237337
3.636862261272151
3.699221727454622
3.775633602849911
3.868976080418276
3.98273843207711
4.121159137804813
4.289391538354739
4.493701730018806
4.741704203557129
5.042643208582358
5.407727868755454
5.850495393923504
6.386957503093948
7.480529843421061
1142160.101398565
209348.1881660195
72899.18934976107
34864.61187707466
19930.59676070154
12764.1764621529
8864.520642654612
6561.283000083955
5124.099273057142
4191.375759477378
3565.329224302109
3128.968816273875
2809.380329133098
2560.226472116137
2352.993454361235
2169.836996457313
2000.412167068071
1839.638209061579
1684.985981155063
1535.809055063294
1392.336559961006
1254.946863855121
1124.064327861531
1000.526756236998
886.1193775645659
782.8561780265088
692.1239178964651
614.5492674450099
549.9404939204227
495.9893038449444
448.9303093322551
407.458715232579
370.6243037479078
337.7121919962181
308.1686211576019
281.5531403665011
257.5071199961812
235.7324349907024
215.9767816882527
198.0232761262253
181.6830626607649
166.7901460957187
153.1980230287334
140.7772975266482
129.413807070338
119.0069854449625
109.4683032055635
100.7196944472805
92.69189314811746
85.32327541232331
78.55904925855248
72.34999791634328
66.65118770020302
61.42102560311532
56.62153240934563
52.21255050728332
48.16061390038683
44.4318517547697
40.98863789152524
37.77068057241015
34.69630870596017
31.65349817096397
28.51685863008253
25.11958379574959
21.16823541770888
16.23036953234097
10.4555738630468
5.695195049336506
3.661922851417488
3.306269030122609
3.270604761207607
3.267072179166082
3.267251057779667
3.270450683865421
3.275053483043198
3.27622554568493
3.276527723874507
3.277012500161724
3.278102588556704
3.28020783199403
3.283687026341391
3.288244337687352
3.293213623073695
3.298954360461326
3.306135804992364
3.315234590728467
3.326559855032325
3.340490392710716
3.35760384781773
3.37857282437065
3.404160342834406
3.435265119739679
3.472951174400293
3.518477833703582
3.573341305318568
3.63932478940204
3.718559975579307
3.813601572351847
3.927516766038147
4.063991154810979
4.227451693579938
4.423204505157266
4.657579672929681
4.938061114594242
5.273344115084373
5.673167725727343
6.147513786034041
7.094907659013237
1142160.057702692
209348.2230001829
72898.88566722312
34863.72305437816
19928.87640928676
12761.38727510248
8860.454269918884
6555.808948575232
5117.230165868503
4183.33225194091
3556.551752631055
3120.041522250997
2800.862636163778
2552.406111038063
2345.230287116114
2162.171117144897
1993.165584320702
1833.475862296674
1680.206969124391
1532.360382408701
1389.962037987407
1253.416309518331
1123.299467333179
1000.541520823817
886.6565256156039
783.6093488124785
692.8343765897137
615.0088988794639
550.1149893119497
496.0521870721238
448.9123527982715
407.3743306940611
370.4787565673104
337.5057391420588
307.8990682543615
281.2175129658315
257.10269422671
235.2574002449414
215.4305616653632
197.4066206464544
180.9978860897087
166.0392467364901
152.3847269823109
139.9051095934252
128.4859877091308
118.0260564884812
108.4355726836949
99.63493519256615
91.55346366930684
84.12839724569263
77.30437570950082
71.03350996918519
65.27660533043924
60.00676683976842
55.21215500572686
50.87323208248562
46.92362558670577
43.31297027059355
40.02982318967417
37.05742606334744
34.33205836124075
31.72801062870607
29.01754420332321
25.58628871915517
20.16533486344636
13.92122949871386
9.292087006085962
6.330593729757744
4.848974361572322
4.127832505679414
3.749011734718338
3.534570193776074
3.407005907520016
3.328792431075448
3.279853797260651
3.248719317247053
3.228931369499727
3.216695177404963
3.209719740364763
3.206606766331988
3.206489959686014
3.208815751495449
3.213263850900837
3.219749146377398
3.2283588193107
3.239288118730822
3.252814688035785
3.269303734258063
3.289219532759641
3.31312984877919
3.341715400155566
3.375786648036371
3.416305619372467
3.464412928625951
3.521461327870573
3.589056668388805
3.669107502777528
3.763884378637558
3.876089707578143
4.008938218089071
4.16624641325465
4.352525954303106
4.573069288189134
4.83400270473089
5.142256781495866
5.505357401358056
5.930868630913178
6.777204585748076
1142160.009286131
209347.4548210551
72897.28190024884
34860.8817840442
19924.33864772821
12754.70288445169
8851.249795362821
6543.843518803334
5102.478813724327
4166.061668404655
3537.352035388391
3099.771705725875
2780.523502690998
2532.970411351288
2327.46798642363
2146.46602643127
1979.512522745199
1821.174083761308
1669.58646198426
1523.601182340164
1383.044365491182
1248.25134809591
1119.511489677816
997.7495955803797
884.5279071548822
781.8192108866567
691.1268317643254
613.197302625421
548.0739424730471
493.8163913449841
446.659835385817
405.1312264615216
368.2596368011882
335.3192866891228
305.7513100249421
279.1136319084423
255.0480586795302
233.2581243417743
213.4938430030465
195.5409693487831
179.2133484416415
164.3475986707354
150.7996718724293
138.442534152505
127.1644814395333
116.867965319866
107.4689767949804
98.89701415766091
91.09531068865266
84.0210839142074
77.64706702838926
71.96625163252402
67.00161077784738
62.69837219105997
58.87683236005353
55.3191943436851
51.79457328330468
47.99062736195612
43.51916482642341
38.19883005510773
32.50191524306872
27.33010433370314
22.8561308663945
18.84224550660419
15.24459074021416
12.22902386695135
9.89671544710227
8.171867899642081
6.921961066309854
6.012167100007504
5.34027919881401
4.836344546374463
4.453295203451283
4.159072495601751
3.931380656146591
3.754364657957769
3.616516296612085
3.509321999157178
3.426379126376428
3.362808704947409
3.314857873538467
3.279626532174359
3.254877985283338
3.238905387547987
3.230432672927108
3.228539481291805
3.23260514470912
3.242267964571833
3.25739628880117
3.278068702174827
3.304561223996988
3.337344714544691
3.377087963293462
3.424668002796025
3.481188212384666
3.548004380548315
3.626759098300192
3.71942486799877
3.828356089317232
3.956349341448804
4.106710212991394
4.283322698361906
4.490713968430124
4.73410317272161
5.019421094562541
5.353300727932766
5.743114952857554
6.524004685117954
1142160.586207574
209351.010947644
72908.58661007053
34884.61873055776
19964.69739860871
12814.89423686076
8933.087644584177
6647.368577050378
5225.688471804442
4304.857521406563
3685.837231934641
3250.932814414216
2927.16525664039
2668.651224837385
2447.203581434132
2247.098056094994
2059.697216998606
1881.245859339925
1711.279819607809
1549.883062048333
1397.120644924138
1253.259480129394
1118.720488971096
994.0290291702983
880.7938859164445
780.6743594396382
694.9235391278091
623.4741113045242
563.3624959935731
510.6062952322295
463.8063899599293
421.9821599962886
384.4081628994887
350.5308063098944
319.9155422247853
292.21072638865
267.1220976290883
244.3951466482899
223.8032772936245
205.1407226685699
188.2188163088601
172.8648474850417
158.9222936083553
146.2515759513967
134.7305791911009
124.2547711418657
114.7114843204594
105.9121796777677
97.63393715035379
89.70534345345877
82.0207362409591
74.54321141585282
67.31431455191964
60.45961547661391
54.14005527438275
48.43637156740024
43.22383450108168
38.3645023912104
33.83148450037405
29.63782949195044
25.82252661006466
22.42105472310477
19.43518243140617
16.84213613276912
14.61331136710667
12.71899228712689
11.12513675905433
9.793033457520592
8.683271420370279
7.759133196288044
6.988568162795578
6.34475865397302
5.805723408795169
5.353594155308033
4.973890908156524
4.65486888190551
4.386968291514532
4.162370478921375
3.974645175296256
3.818472947870191
3.689428399868944
3.583811977338748
3.498520461814315
3.430948136822388
3.378912096803524
3.340596517885582
3.314511789746631
3.299465235507394
3.294540809764035
3.29908575781924
3.312702838527602
3.335247359852068
3.366828578455414
3.407815549906808
3.458844537709786
3.520840141923737
3.595035911371315
3.683003389426601
3.786688995407466
3.908458607707239
4.051149465150088
4.218128344798407
4.413354966803784
4.64145179357161
4.907791134307544
5.218640265970332
5.581485976431199
6.313247818424004
1142165.903867692
209379.9337931744
72990.85185154216
35050.09954607526
20237.69933149755
13210.57815533069
9454.955971886955
7285.948402672132
5958.948131605257