/*--------------------------------*- C++ -*----------------------------------*\
| =========                 |                                                 |
| \\      /  F ield         | OpenFOAM: The Open Source CFD Toolbox           |
|  \\    /   O peration     | Version:  v1812                                 |
|   \\  /    A nd           | Web:      www.OpenFOAM.com                      |
|    \\/     M anipulation  |                                                 |
\*---------------------------------------------------------------------------*/
FoamFile
{
    version     2.0;
    format      ascii;
    class       volScalarField;
    location    "0.00000056";
    object      p;
}
// * * * * * * * * * * * * * * * * * * * * * * * * * * * * * * * * * * * * * //

dimensions      [0 2 -2 0 0 0 0];


internalField   nonuniform List<scalar> 
44064
(
0.08634666551042787
0.08634653488883502
0.08634639828553924
0.08634626462099841
0.08634612839199905
0.08634598716642358
0.08634584087246484
0.0863456892981399
0.08634553260093801
0.0863453704443508
0.08634520292526816
0.0863450297259091
0.08634485124741142
0.08634466788956412
0.08634448122754979
0.0863442934575642
0.08634410871366609
0.08634393246682558
0.08634377163529165
0.08634363167083961
0.08634351505061688
0.08634341925227136
0.08634333758808932
0.08634325923293945
0.08634317129905797
0.08634305927303608
0.08634290860773509
0.08634270415138683
0.08634243136502376
0.0863420758640172
0.08634162408174542
0.08634106201391235
0.08634037635415623
0.08633955398479685
0.086338582130146
0.0863374465919642
0.08633613185183139
0.08633461998594996
0.08633289302789239
0.08633094240179322
0.08632876620039784
0.08632635432379029
0.08632368957893283
0.08632074901885099
0.08631750625662096
0.08631393379070347
0.08631000217037611
0.0863056798755588
0.08630093471084856
0.08629572358509127
0.08628995941032878
0.08628362702122942
0.08627773499131199
0.08627246395684021
0.08626626622501876
0.08625849023248024
0.08624957986735123
0.08623991826047504
0.08622976276143084
0.08621930026548288
0.08620822327351409
0.08619603743210268
0.08618257355236049
0.08616790384416055
0.08615207394832852
0.08613497985745218
0.0861164920488163
0.08609652218077218
0.08607497538454846
0.08605174344182702
0.086026716160835
0.08599978179283745
0.08597082630043515
0.08593973436759787
0.08590639119769222
0.08587068363453497
0.08583250244767755
0.08579174422236015
0.0857483143927425
0.08570213020049264
0.08565312474333067
0.08560124977678453
0.08554648125591752
0.08548882443058681
0.08542832229989215
0.08536505803163656
0.08529916902686087
0.08523086539668213
0.08516042639783912
0.08508821961630056
0.08501462286197604
0.08493998874511877
0.08486485762495334
0.08479057123456166
0.08471954440225632
0.08465416877891338
0.0845965670956962
0.0845493474483482
0.08451567635663389
0.08449948130889184
0.08450578949117118
0.08454024997838892
0.08461133210966768
0.08473121813037064
0.08488116313529
0.08523316640938927
0.08682875210535113
0.06704643406062588
0.08148949806729282
0.08148950740276192
0.08148951709590638
0.08148952556300916
0.0814895333300986
0.08148954086472242
0.08148954851376568
0.08148955681812298
0.08148956638647897
0.081489578179069
0.08148959321582765
0.08148961295603815
0.0814896389907411
0.08148967355885015
0.08148971923228415
0.08148977942693512
0.08148985793563912
0.08148995934645956
0.08149008840474646
0.08149025041607925
0.08149045065101281
0.08149069488862892
0.0814909884699494
0.08149133654709427
0.08149174275178922
0.08149220894429288
0.0814927341020717
0.08149331748785527
0.08149396168090492
0.08149467353203951
0.08149546019676371
0.08149632901292905
0.08149728586898387
0.08149833656354354
0.0814994895507522
0.08150075687045225
0.08150215037349333
0.08150368335951265
0.0815053734949959
0.08150723870230085
0.08150929656284661
0.0815115615159334
0.0815140185551979
0.08151664602652298
0.08151946675256659
0.08152251706404702
0.08152582211876201
0.08152941546600502
0.08153333784343916
0.08153764804201843
0.08154243273551055
0.08154757090861191
0.08155193098491952
0.08155558448853382
0.08156012533660401
0.08156600274358036
0.08157226868726164
0.08157858692280368
0.08158545437173573
0.08159283692812855
0.08160056219777942
0.08160880692181245
0.0816178112660062
0.08162766189423944
0.08163833225961296
0.08164982919922606
0.08166221745481508
0.08167556611410845
0.08168993159556298
0.08170536912104041
0.08172193679254339
0.08173969150208751
0.08175868716368917
0.08177897452841143
0.08180059962429238
0.08182360239882075
0.08184801479035207
0.08187385923867389
0.08190114636156444
0.08192987332823957
0.08196002171933682
0.08199155611648262
0.08202442256128935
0.08205854751951351
0.0820938385448344
0.08213018402899672
0.08216745312137094
0.08220550280957249
0.08224417752054787
0.08228335309335005
0.08232297054721083
0.08236305886647699
0.08240361490577143
0.0824442045296693
0.08248386883605406
0.08252164408010133
0.08255696928228647
0.08258968099482702
0.08261982772194648
0.08264679057722754
0.08266905933204646
0.08268808944737729
0.08269426256143048
0.08266771685448368
0.0825639737431991
0.08265897471463624
0.08606981606832198
0.06338155262709289
0.08048499786011767
0.0804849998721603
0.08048500166426238
0.08048500301742867
0.08048500425025484
0.08048500545552799
0.08048500671686344
0.08048500816143257
0.08048500994077806
0.08048501243365573
0.08048501587323138
0.08048502087154451
0.08048502788557281
0.08048503787171928
0.08048505151274281
0.08048506998098845
0.08048509399769679
0.08048512467243732
0.08048516248632126
0.08048520844468215
0.08048526311628675
0.08048532791019133
0.08048540387197241
0.08048549283698735
0.08048559543276898
0.08048571175935393
0.08048583982114349
0.08048597898813252
0.08048613013271354
0.08048629615809842
0.08048647859013883
0.08048667943711074
0.08048689990413227
0.08048714259612835
0.08048740943916706
0.08048770289866695
0.08048802403033289
0.08048837455112925
0.08048875443842794
0.08048915840319149
0.08048956845547232
0.08048996337202163
0.08049032670150535
0.08049064976725084
0.08049093077375878
0.08049118719719578
0.08049144250167939
0.08049169616557682
0.08049189323162188
0.08049194927414036
0.08049184985014227
0.08049165694717905
0.08049134047784502
0.08049088002490587
0.08049035766478285
0.08048987242551707
0.0804899204265965
0.08049037552748461
0.08049041250799538
0.0804898061710807
0.08048909844834908
0.08048874124605762
0.08048859174508341
0.08048841951442726
0.08048819220304929
0.08048795076290265
0.08048772466323607
0.08048751037062671
0.08048730943083722
0.08048713513044656
0.08048700276023528
0.0804869293880478
0.08048693556684199
0.08048704690648917
0.08048729370949413
0.08048771237542392
0.08048834537325722
0.08048924282208636
0.08049046225376436
0.08049206995925073
0.08049414061407217
0.0804967592684941
0.08050002024955805
0.08050402679976788
0.08050888837993807
0.08051472263116476
0.08052164463535057
0.08052975907181774
0.08053915203938401
0.08054988939777616
0.08056206251620691
0.08057580317375598
0.08059113600429747
0.0806077302690596
0.08062491255652314
0.08064217752178407
0.08065914459293362
0.08067463351800926
0.08068732453764618
0.08069691072054712
0.08069907760605907
0.08068500919011541
0.08065720491794295
0.08060699801649
0.08047988371023071
0.08053898509020455
0.08208583259095299
0.06849216798848401
0.07965183325880087
0.07965183684803737
0.07965184117032492
0.07965184597206534
0.07965185144674178
0.07965185756317125
0.0796518641982652
0.07965187142236717
0.07965187917172911
0.07965188771233944
0.07965189706031039
0.07965190764225615
0.07965191959391738
0.07965193348042841
0.07965194948257219
0.07965196820646608
0.07965198982636819
0.0796520149739894
0.07965204385772087
0.07965207729589438
0.07965211570323738
0.07965216015686426
0.07965221134070408
0.07965227057303172
0.07965233826612347
0.07965241471997933
0.07965249880160734
0.07965259023540117
0.07965268920146047
0.07965279756052002
0.07965291647210739
0.07965304761393031
0.07965319204230317
0.07965335174601615
0.07965352810455797
0.07965372343791402
0.07965393949275835
0.07965417900728847
0.07965444408394644
0.0796547379101145
0.07965506455116333
0.07965543119884366
0.07965584494462072
0.07965631159293524
0.07965682594196068
0.07965737208737456
0.07965793607195376
0.07965850765210014
0.07965907146031477
0.07965962779663982
0.07966020599230869
0.07966081530338737
0.07966139001670627
0.07966186122089067
0.07966223568780224
0.07966253437227723
0.07966283535061096
0.0796631724676812
0.07966348163266472
0.07966381944040282
0.07966417531208125
0.07966440438372402
0.07966463886512121
0.07966497102087823
0.07966530196819176
0.07966565389685838
0.07966603070106569
0.07966642251282022
0.07966682641676572
0.07966724207702323
0.07966766540531481
0.07966809074526346
0.07966851168591761
0.07966892087538061
0.07966930912845158
0.07966966597964825
0.07966997901648397
0.0796702344250247
0.07967041633990028
0.07967050739778971
0.07967048796714954
0.07967033699922485
0.07967003139741839
0.07966954664052943
0.07966885533138443
0.07966793146549564
0.07966674603129068
0.07966527080440614
0.07966347387658466
0.07966130063421155
0.07965868991123787
0.07965562346913592
0.07965213309938808
0.079648214471731
0.0796437969872287
0.0796387802551461
0.07963333991574484
0.07962784401864668
0.07962055837045295
0.07960697415002266
0.07958839396600029
0.079555610737798
0.07948123661326359
0.07937430070094931
0.07924226267634529
0.07931753483909831
0.08040588988356909
0.06996390256545718
0.07873766930909729
0.07873767258651307
0.07873767662648876
0.07873768095532986
0.07873768562571967
0.07873769066494761
0.07873769605126357
0.07873770177270989
0.07873770790535389
0.07873771449709396
0.07873772169017716
0.0787377295486251
0.07873773827214411
0.07873774792958457
0.07873775871829067
0.0787377706864639
0.07873778405379846
0.07873779892447172
0.07873781568170612
0.07873783469028905
0.07873785663952171
0.078737882198787
0.07873791238531425
0.07873794804996714
0.07873799002598857
0.07873803847350383
0.07873809317773484
0.07873815344823377
0.078738219341594
0.07873829168757825
0.07873837173415255
0.0787384602084728
0.07873855808906581
0.07873866628103085
0.07873878602643339
0.07873891850385883
0.0787390652439023
0.07873922773954146
0.07873940783336066
0.07873960737015905
0.07873982853151254
0.07874007347601243
0.0787403446844693
0.07874064455387461
0.07874097641387295
0.07874134863873465
0.07874177374015146
0.07874225641424698
0.07874278527157426
0.07874334590687641
0.07874393708589833
0.07874455332880528
0.07874518387218338
0.07874583158757256
0.07874646918369414
0.07874704837351211
0.07874756362088589
0.07874802956421727
0.07874847095646477
0.07874893550950164
0.07874944994647678
0.07875007770950122
0.07875057618772927
0.0787510060910088
0.07875160934251224
0.07875229846087466
0.0787530371198443
0.07875383455848767
0.07875469987997673
0.07875563914421255
0.07875665650295186
0.07875775719898509
0.07875894692185587
0.07876023120100903
0.07876161519464309
0.07876310389879138
0.07876470166747628
0.07876641215684563
0.07876823779725668
0.07877017965364887
0.07877223608624233
0.07877440320505039
0.07877667458628181
0.07877904168613027
0.07878149162549836
0.07878400781954038
0.07878658009936541
0.07878918434267931
0.07879178113584932
0.07879432222318312
0.07879675316525936
0.07879906403468596
0.07880130621303555
0.07880339559482014
0.07880513215442624
0.07880671329863383
0.07880769411771846
0.07880461550133386
0.07879360068459076
0.07877245130891072
0.07872740062073544
0.07866127541606778
0.07859009940908246
0.07848800879423898
0.07834533687010314
0.07842058142431658
0.07940433789548688
0.06948055732690887
0.07791756651464105
0.07791756897780167
0.07791757146060201
0.07791757365507224
0.07791757563666481
0.07791757751513632
0.07791757943018233
0.07791758141580409
0.07791758364281787
0.07791758614004057
0.07791758909797995
0.07791759255482625
0.07791759669229771
0.07791760154504282
0.07791760729269838
0.07791761398378061
0.07791762179369709
0.07791763081706539
0.07791764133868936
0.07791765359710669
0.07791766805404707
0.07791768520657913
0.07791770580890972
0.0779177305572509
0.07791776013558088
0.07791779477067881
0.07791783424955409
0.07791787791468584
0.07791792575614687
0.07791797850291841
0.07791803707437414
0.07791810202355023
0.07791817401416168
0.07791825367219227
0.07791834179509349
0.07791843913349988
0.07791854661271427
0.07791866512945364
0.07791879577437845
0.07791893963791362
0.07791909803775655
0.07791927233258772
0.07791946414575629
0.07791967518271531
0.07791990739635678
0.07792016271629369
0.07792044301363933
0.07792075018360847
0.077921089911431
0.07792147517354664
0.07792191344378546
0.07792239484338696
0.07792290911672983
0.0779234560184309
0.07792402358000361
0.07792457898505006
0.07792508625121138
0.07792553770481535
0.07792594071392157
0.07792628853380507
0.07792659381144167
0.07792693893394272
0.07792741254287987
0.07792789911379877
0.07792829332026056
0.07792866420275195
0.07792908247438957
0.07792955443424357
0.07793006809325512
0.07793062558798933
0.07793123294147311
0.07793189531967595
0.07793261788125823
0.07793340623128521
0.07793426661753401
0.07793520593204448
0.07793623173019586
0.07793735239691657
0.07793857732812898
0.07793991790244394
0.07794138738285462
0.07794299778056105
0.07794475893040086
0.07794667851774775
0.07794876385328053
0.07795101007201159
0.07795339988752251
0.07795595799405869
0.07795872713283641
0.07796174262552319
0.07796496236515381
0.0779681767900952
0.07797126240971726
0.07797441093960558
0.07797739205808922
0.0779771845161964
0.07796961613985295
0.07795432958716225
0.07792655623044847
0.07787671521796385
0.07781614317803583
0.0777450450263972
0.07765589307048172
0.07753538465216807
0.07737916497061133
0.07740155613549556
0.07822617282804029
0.06967995239887527
0.07720423294618831
0.07720423533848964
0.07720423801162941
0.0772042407446967
0.07720424365455916
0.07720424682763594
0.07720425021926698
0.07720425391241238
0.07720425786455028
0.07720426221707347
0.07720426695687681
0.07720427226686954
0.07720427815062482
0.07720428480769231
0.07720429223348108
0.07720430061868923
0.07720430994099312
0.07720432043606379
0.07720433215945363
0.07720434547713678
0.07720436058670567
0.07720437808637179
0.07720439841994281
0.07720442240580527
0.07720445041544437
0.07720448285756648
0.07720451930556214
0.07720455950393552
0.07720460321618335
0.07720465116415597
0.07720470374255824
0.07720476176266249
0.07720482549678737
0.07720489575262689
0.07720497288389361
0.07720505780981887
0.07720515096644187
0.07720525338405779
0.07720536560595184
0.0772054888085751
0.07720562368980889
0.07720577162821458
0.07720593355240128
0.07720611112504953
0.07720630559058404
0.07720651897902359
0.07720675292516854
0.07720700978893991
0.07720729131910938
0.07720759957652339
0.07720793635121392
0.07720830830116923
0.07720872472803639
0.07720918345640732
0.07720966631780628
0.07721015440417635
0.0772106407194933
0.07721112162308705
0.07721158217501611
0.07721201304899269
0.07721240229027504
0.0772127510964085
0.07721312028548734
0.07721350085323264
0.07721378282269005
0.07721412154003865
0.07721460407718111
0.07721509142337853
0.0772156119786423
0.07721617579473797
0.0772167834250036
0.07721743772832539
0.07721814186007595
0.07721889915043634
0.07721971269612284
0.07722058592553832
0.0772215219451495
0.07722252386439739
0.07722359388214005
0.07722473284762646
0.07722594163037869
0.07722722539685867
0.07722859199289064
0.07723005009716019
0.07723160604819743
0.07723328185298022
0.07723508945630143
0.07723698213426686
0.07723890350187645
0.07724082235284435
0.07724287299194033
0.07724520875047766
0.07724739395403549
0.07724685058505946
0.07724056871366741
0.07722852971750342
0.07720807904075312
0.07717102330068477
0.07712215552110008
0.07706811760145348
0.07700118964455818
0.07691829838999051
0.07681811114985301
0.07669079720782776
0.07652908382468276
0.07650564661442641
0.07718152542957736
0.07010451683726196
0.07657063108744946
0.07657063355034611
0.07657063646743062
0.07657063979411115
0.07657064327431695
0.07657064706510491
0.07657065097103098
0.07657065516460124
0.07657065952216187
0.07657066422197689
0.07657066920576963
0.0765706746662419
0.07657068057249236
0.07657068711454985
0.07657069427253008
0.0765707022601603
0.07657071110792446
0.07657072109484588
0.07657073232615197
0.07657074519175841
0.0765707598670958
0.07657077685011986
0.07657079645015041
0.07657081932178765
0.0765708457311723
0.07657087606991805
0.07657091000859034
0.07657094735783682
0.0765709877363981
0.07657103161570615
0.07657107929663438
0.07657113155831181
0.07657118859366067
0.07657125111507136
0.07657131936675443
0.07657139415668857
0.07657147578545768
0.07657156514391254
0.0765716625992075
0.07657176914616112
0.07657188525931995
0.07657201209101674
0.07657215029516551
0.07657230126123193
0.07657246590710687
0.07657264593295253
0.07657284258846551
0.07657305792570991
0.07657329353674817
0.07657355171097932
0.07657383397375957
0.07657414201394833
0.076574476397079
0.07657483792581703
0.0765752271464244
0.07657564041231857
0.07657607190860358
0.07657651793294658
0.07657696830360761
0.07657740352893662
0.07657780336361145
0.07657815305393671
0.07657845900364375
0.07657875577497705
0.07657913960069411
0.07657944570449091
0.07657970898097642
0.07658009881839856
0.0765805158314351
0.07658096746347214
0.07658145928608313
0.07658199434359222
0.07658257614497443
0.07658320847430485
0.07658389521729204
0.07658464074273288
0.07658544937135205
0.07658632622477651
0.07658727687837107
0.0765883082761047
0.07658943007528823
0.07659065033777775
0.07659197346421007
0.0765934002547486
0.07659492244755894
0.07659652013500039
0.07659819997434505
0.07660001420536346
0.07660202251025462
0.07660425606695438
0.07660572606807232
0.07660422363080031
0.07659764769875782
0.07658659207406633
0.07656928619314603
0.07653983962843539
0.07650005250403442
0.07645559911485843
0.07640306214849217
0.07633937891301498
0.07626173186151883
0.0761699011993999
0.0760621869721634
0.07592939402545215
0.07576408375479447
0.07570261207099102
0.07627740973372243
0.07038932337025208
0.07598266293934401
0.07598266478588074
0.07598266642711864
0.0759826674257057
0.07598266864037512
0.0759826698656477
0.0759826714178608
0.07598267306090863
0.07598267499664144
0.07598267718212245
0.07598267970405864
0.07598268259547697
0.07598268591121389
0.07598268977745702
0.07598269420267124
0.07598269937256959
0.07598270531182987
0.07598271228660528
0.07598272034260593
0.07598272983854545
0.075982740867516
0.07598275391476358
0.07598276919064917
0.07598278734644555
0.07598280858534306
0.07598283335891462
0.07598286132209349
0.07598289235284469
0.07598292589828075
0.07598296232631166
0.07598300183849636
0.07598304523910979
0.07598309259406891
0.07598314456019958
0.07598320122798503
0.07598326330970195
0.07598333092060465
0.07598340479495945
0.07598348506266318
0.07598357247729945
0.07598366719636382
0.07598377001262631
0.07598388115244369
0.0759840014937378
0.07598413138526766
0.07598427183911466
0.07598442338201047
0.07598458720649887
0.07598476405553073
0.07598495533026733
0.0759851620000758
0.07598538540128996
0.07598562611349831
0.07598588517731875
0.07598616390646362
0.07598646423093623
0.07598678600488218
0.07598712693396181
0.07598748290060829
0.07598784864169743
0.07598821821289858
0.07598858573432817
0.07598893975803667
0.07598925622536057
0.07598959426168274
0.07599000860040453
0.07599040388100255
0.07599078725649708
0.07599121545450416
0.07599168911106848
0.0759922087160146
0.07599277933566501
0.07599340644017734
0.07599409632344967
0.07599485555518447
0.07599569141507609
0.07599661167958555
0.0759976234258414
0.07599873420094061
0.07599994626295989
0.07600125753386007
0.0760026816362798
0.07600424750642938
0.07600599420061503
0.07600796156895261
0.07601020375218405
0.07601271983629647
0.07601499733123673
0.07601560086996109
0.07601264247039079
0.07600549188482818
0.07599565611980953
0.07598095424034887
0.07595678876181383
0.07592429758195264
0.07588813140768517
0.07584730529640381
0.07579869259315163
0.07574004377385181
0.07567026830776637
0.07558911692948554
0.07549499617916351
0.07538559603130104
0.07525477165028469
0.07509365618788934
0.07501358994822235
0.07553784804800096
0.07053166417527117
0.0754121163809772
0.07541211794731215
0.07541211876471104
0.07541211865879516
0.07541211821879135
0.0754121172240898
0.0754121162270997
0.0754121150394098
0.07541211402727641
0.0754121130149966
0.07541211230861866
0.07541211185338839
0.07541211182391831
0.07541211218843749
0.07541211306782955
0.07541211449157093
0.07541211651261999
0.07541211919976509
0.0754121226231569
0.0754121269533308
0.07541213232080539
0.07541213906550573
0.07541214750449578
0.07541215818696478
0.07541217141834576
0.07541218753261841
0.0754122063746738
0.07541222780648213
0.07541225140454655
0.07541227732619765
0.07541230586938373
0.07541233772540648
0.07541237309302168
0.07541241251138812
0.07541245623479642
0.07541250490329628
0.07541255884399435
0.07541261877743649
0.07541268510753912
0.07541275864316835
0.07541283988375208
0.07541292975326497
0.07541302889249368
0.07541313839410549
0.07541325910665837
0.07541339236529296
0.07541353931015464
0.07541370161549474
0.07541388082730929
0.07541407896143783
0.07541429783521494
0.07541453968853999
0.07541480654137329
0.07541510082362983
0.07541542442983197
0.0754157781506071
0.07541616042115867
0.07541656919833414
0.07541700123522124
0.07541745110750676
0.07541791105918397
0.07541837000871658
0.07541880888104135
0.07541921798129417
0.07541960868988104
0.07542001678518924
0.07542034242665427
0.07542069330278429
0.07542122263005178
0.07542180935962853
0.07542246084269189
0.07542318739269961
0.07542400423514749
0.07542492195917146
0.07542595440252021
0.07542711854838792
0.07542843388647057
0.07542992158045131
0.07543159945673512
0.07543350705216946
0.07543572184128966
0.07543828702007151
0.07544117195571089
0.07544421689273463
0.07544693555192972
0.07544822786643031
0.07544674181798491
0.07544213382221215
0.07543549562628736
0.07542683953855575
0.07541408043613007
0.07539421978504444
0.07536862837987507
0.07534097794081113
0.07531058814658272
0.07527480865597168
0.07523204653439997
0.07518129635174411
0.07512249670001206
0.07505498879970662
0.07497652130822788
0.07488525472993418
0.07478206629715316
0.07466046972146824
0.07450871156704313
0.07442067190956692
0.07491050342445182
0.07055642667849737
0.07484170925029264
0.07484170981906452
0.07484171022855855
0.07484170996638362
0.07484170989562372
0.07484170993157192
0.07484171022681682
0.07484171073026828
0.07484171140800588
0.07484171233091695
0.07484171344118859
0.07484171487264336
0.07484171656502045
0.07484171866844004
0.07484172111081835
0.07484172404615601
0.07484172740761195
0.07484173139188012
0.07484173596157688
0.07484174136332264
0.07484174761945728
0.07484175512220571
0.07484176406916268
0.07484177504475792
0.07484178826921038
0.07484180417615863
0.07484182260718579
0.07484184356553872
0.07484186654411545
0.07484189168178861
0.074841919166919
0.07484194977125563
0.07484198363530553
0.07484202138526425
0.07484206323976764
0.07484210995748301
0.07484216187247139
0.07484221986717154
0.07484228439922123
0.07484235648298335
0.07484243671368192
0.07484252624905886
0.0748426258355453
0.07484273677753732
0.07484285997029809
0.07484299685412729
0.07484314846807248
0.07484331635219058
0.0748435014235678
0.07484370497979811
0.07484392805337353
0.07484417229412216
0.07484443923453309
0.07484473142712024
0.0748450518428138
0.07484540491959112
0.07484579457322446
0.07484622534311568
0.07484670153215853
0.07484722875109068
0.07484781461597678
0.07484846985037705
0.07484920681999399
0.07485003085498909
0.07485092219720108
0.07485183183431329
0.07485272861434651
0.07485374205754575
0.07485496965506366
0.07485633681242729
0.074857857509909
0.07485962158700184
0.07486164332093463
0.07486396043829367
0.07486661370971513
0.07486963345748117
0.07487304219799379
0.07487685392300748
0.07488103645055075
0.07488529875650048
0.07488907331173669
0.07489172753685512
0.07489266977940844
0.0748916012625051
0.07488867446097028
0.07488452763053376
0.07487892209701168
0.07487131459138918
0.07486122452785531
0.07484777244206403
0.07483102501158735
0.07481250121511204
0.07479144831152315
0.07476610871074885
0.07473561586086765
0.0746997439968492
0.07465826981923063
0.07461054978890645
0.07455551406227001
0.07449187107141127
0.07441919866341218
0.07433737773033572
0.07424430125990091
0.07413230900641019
0.07399053029006582
0.07389531679311788
0.07434801833689987
0.07056075207777227
0.07408888890714563
0.07408888758802294
0.07408888325893871
0.0740888755989417
0.07408886651499684
0.07408885541582076
0.07408884395616443
0.07408883176647874
0.07408881972861779
0.07408880745531397
0.07408879553020925
0.07408878385428555
0.07408877257486676
0.0740887616221225
0.07408875098847593
0.07408874076026861
0.07408873079785039
0.07408872124126148
0.07408871189264797
0.07408870296237313
0.07408869424425041
0.07408868606478625
0.07408867828177343
0.07408867130392088
0.0740886649580797
0.0740886596509765
0.07408865511676076
0.07408865167145778
0.07408864892458138
0.07408864727952925
0.07408864678938119
0.0740886483212605
0.07408865194361711
0.07408865846035513
0.07408866807934726
0.07408868178603931
0.07408870001893321
0.07408872400817477
0.07408875450295965
0.07408879306355395
0.07408884087089546
0.07408889994232314
0.07408897203272088
0.07408905977253614
0.07408916567758388
0.07408929320441936
0.07408944585768361
0.07408962820281137
0.07408984539533364
0.07409010424982343
0.07409041254797735
0.07409078003860495
0.0740912183166981
0.07409174179338443
0.0740923655930239
0.07409309548745754
0.07409393251089263
0.07409489208548728
0.0740960093179448
0.07409732261678499
0.07409886837651691
0.07410073886891871
0.07410308737229203
0.07410567710254394
0.07410733567355321
0.07410902245758433
0.07411424303794799
0.07412195602268101
0.07412897939765058
0.07413559777411734
0.0741423967028343
0.07414919043542004
0.07415602561724186
0.07416284790977645
0.07416949455614444
0.07417579051760739
0.07418162857177271
0.07418696372913852
0.07419188763360626
0.07419669242385614
0.07420137577533274
0.07420576816048692
0.07420982833988043
0.07421349719077319
0.07421648077663326
0.07421832318505733
0.07421872499838025
0.07421755610307032
0.07421440017238777
0.07420938961203609
0.0742029059630173
0.07419439584646254
0.0741833368472755
0.07416926997299848
0.07415162952026577
0.07412973924814412
0.07410270968617839
0.07406954015323475
0.07402905578435556
0.07397995770121464
0.07392079818214772
0.07385053453328944
0.07376755063147339
0.07366598549280716
0.07353449150333345
0.07343384829042159
0.07385088625935164
0.07056559427556339
0.07286792903394344
0.07286792201415784
0.07286790663239683
0.07286788105763232
0.07286784893134755
0.07286781101960367
0.07286777055862871
0.07286772693436341
0.07286768265868385
0.07286763722860388
0.07286759224443506
0.07286754694771599
0.07286750241619271
0.07286745796706789
0.07286741424871512
0.07286737054849413
0.07286732735216737
0.07286728403278211
0.07286724095789991
0.07286719748752901
0.07286715396546631
0.07286710981469388
0.07286706541939166
0.07286702022629873
0.07286697468113237
0.07286692830371082
0.07286688171807557
0.07286683460862649
0.07286678794670162
0.07286674193904452
0.07286669820006471
0.07286665718736413
0.07286662056366287
0.07286658893852525
0.07286656434682214
0.07286654783539023
0.07286654198912151
0.0728665485003563
0.07286657074209649
0.07286661134047244
0.07286667480497555
0.07286676512747467
0.07286688844674023
0.07286705073660922
0.07286726053571083
0.0728675267782888
0.07286786166765727
0.07286827883152429
0.07286879623013293
0.07286943392137143
0.07287021866949722
0.07287119371073925
0.07287243413633357
0.07287393600986412
0.07287528834063943
0.07287571707426947
0.07287562040311119
0.07287761170628707
0.07288260902597798
0.07289004734856594
0.07290105189612452
0.07291689917508198
0.07293804339079618
0.07296462671090832
0.07299747528249299
0.07303671671132828
0.07307983465697014
0.07312249451716776
0.07316256916989934
0.0731996364834477
0.0732343300275471
0.07326721222207294
0.07329853819781075
0.07332834314719631
0.07335666212786826
0.07338359124170887
0.07340918834887297
0.07343348811780138
0.07345651418534138
0.07347832194198066
0.07349894186908257
0.07351842667162464
0.07353684986882227
0.07355433392174329
0.07357097067710132
0.07358683317014623
0.07360190524471118
0.07361610840571259
0.07362917589094335
0.07364078299579167
0.07365062750187301
0.07365831650450945
0.07366332590454033
0.07366500787569535
0.07366253674378553
0.0736550162233853
0.07364140847809324
0.07362061155591927
0.0735913882215659
0.07355248668415719
0.07350267232360021
0.07344015762006408
0.07336377582098691
0.07326943530747577
0.07314560105529713
0.07304144511202962
0.07343101046800593
0.07055371837653855
0.07026211562072426
0.07026209475313555
0.07026206755355804
0.07026203445203448
0.07026199529303473
0.07026195339024002
0.07026190902218546
0.07026186431384127
0.07026181869582065
0.0702617731705739
0.07026172750073501
0.07026168225192635
0.07026163718132641
0.07026159238885421
0.07026154784503214
0.07026150352221548
0.07026145949417462
0.07026141569622138
0.07026137245175004
0.07026132971890965
0.0702612878435141
0.07026124669107858
0.07026120661649467
0.07026116749491448
0.0702611300174187
0.07026109462804048
0.07026106289118271
0.07026103644195808
0.07026101943459677
0.0702610169977258
0.07026103469937395
0.07026107737833495
0.07026115243694599
0.07026126820153887
0.07026143561990875
0.07026166701421861
0.0702619781123069
0.07026238696761933
0.07026291618009554
0.07026359209674887
0.07026444735693557
0.07026552052063882
0.07026685906329763
0.07026851969930567
0.07027057274985984
0.07027310400080831
0.07027621273890777
0.07027999755842007
0.07028458036608944
0.07029013766306624
0.07029690027701524
0.07030516426340105
0.07031538144142578
0.07032821944620365
0.0703446968348079
0.07036616354724484
0.07039271157570433
0.070422231916949
0.07045426616584409
0.07048989118707448