/*--------------------------------*- C++ -*----------------------------------*\
| =========                 |                                                 |
| \\      /  F ield         | OpenFOAM: The Open Source CFD Toolbox           |
|  \\    /   O peration     | Version:  v1812                                 |
|   \\  /    A nd           | Web:      www.OpenFOAM.com                      |
|    \\/     M anipulation  |                                                 |
\*---------------------------------------------------------------------------*/
FoamFile
{
    version     2.0;
    format      ascii;
    class       surfaceScalarField;
    location    "0.00000056";
    object      phi;
}
// * * * * * * * * * * * * * * * * * * * * * * * * * * * * * * * * * * * * * //

dimensions      [0 3 -1 0 0 0 0];
oriented        oriented;


internalField   nonuniform List<scalar> 
87612
(
1.585504098744644e-06
1.628251377489934e-08
3.150004078943766e-06
4.884802439806603e-08
4.704266856717385e-06
8.235888959547149e-08
6.25813925881964e-06
1.177669218543484e-07
7.820897454150511e-06
1.56056620953998e-07
9.400930934885623e-06
1.9826870879438e-07
1.100614681445864e-05
2.455201414141596e-07
1.264354763978335e-05
2.990204610964677e-07
1.431966691465483e-05
3.600853972968758e-07
1.60400904999957e-05
4.301499239606276e-07
1.780989888115483e-05
5.107821667692748e-07
1.963315977583507e-05
6.036964423984047e-07
2.151336778747163e-05
7.107607433621676e-07
2.345294406695951e-05
8.339951588831845e-07
2.545370601638724e-05
9.755582294049237e-07
2.751643246123148e-05
1.137718623024608e-06
2.964141274719697e-05
1.322816651443598e-06
3.182812397221603e-05
1.533218020285953e-06
3.407590102803093e-05
1.771260491246648e-06
3.638373840725819e-05
2.039216139316402e-06
3.875099838967185e-05
2.33931210020223e-06
4.117714731094339e-05
2.673816684558119e-06
4.366225741065793e-05
3.045186424038422e-06
4.620646524944915e-05
3.456248710740818e-06
4.881017024688837e-05
3.910349370139467e-06
5.147329730817116e-05
4.41146300215936e-06
5.419533624146997e-05
4.964278264400945e-06
5.69745581934859e-05
5.574231496716483e-06
5.9808141533863e-05
6.247429592017288e-06
6.269166784675204e-05
6.990531212612769e-06
6.561939957442849e-05
7.810771164427845e-06
6.858375081195582e-05
8.71605656291586e-06
7.157548203383829e-05
9.715023769706832e-06
7.458309527968769e-05
1.081716578725235e-05
7.759296346329356e-05
1.20328600079598e-05
8.058890688371417e-05
1.337328471871415e-05
8.355246984501422e-05
1.485046261041293e-05
8.646253197053495e-05
1.647732871658206e-05
8.929569198989746e-05
1.826768756458501e-05
9.202651902442162e-05
2.023578535233512e-05
9.462874815029529e-05
2.239608449060317e-05
9.707636675490702e-05
2.476285583841946e-05
9.934516811492768e-05
2.735041694502117e-05
0.0001014114814495933
3.017547979992133e-05
0.0001032522013297087
3.325656526113644e-05
0.000104847357164109
3.661101573649467e-05
0.0001061817070324667
4.025669729690436e-05
0.0001072459044180175
4.421201536320086e-05
0.0001080383669227424
4.849596211163551e-05
0.0001085667887848416
5.312808851636663e-05
0.0001088499242385142
5.812902496549882e-05
0.0001089150139102748
6.35244756090278e-05
0.0001087980942623356
6.934318056797725e-05
0.0001085409088446709
7.561996968897728e-05
0.0001081941775268372
8.239032853740507e-05
0.000107806711046833
8.970426879539692e-05
0.0001074014688935939
9.764029800909358e-05
0.0001069759576587797
0.0001062809402972447
0.0001065410053245257
0.000115675236639578
0.0001060757027362401
0.000125922619712821
0.0001055513514463795
0.0001371047372174091
0.0001049593160573065
0.0001492817933246547
0.0001043107111009321
0.0001625215388497646
0.0001036049804800219
0.0001769308190883682
0.0001028364857046972
0.0001926183836950448
0.0001019980188886655
0.0002096986308788986
0.0001010845702779505
0.0002282922038204693
0.0001000907959551396
0.0002485331918464488
9.901090632500996e-05
0.0002705676071046127
9.783901691721104e-05
0.000294554085503773
9.656907931685567e-05
0.0003206653030418604
9.519497265808104e-05
0.0003490892566037727
9.371041659878774e-05
0.0003800305496045005
9.210918258955268e-05
0.0004137118626059649
9.038498448683122e-05
0.0004503755550848021
8.85317588654179e-05
0.0004902854039501098
8.654351723702914e-05
0.0005337284952063802
8.441470689915348e-05
0.0005810172864507696
8.214004545039418e-05
0.000632491850665716
7.971496753773744e-05
0.000688522318260255
7.71354012323715e-05
0.0007495115686689645
7.439828392407853e-05
0.0008158981087613943
7.150134776386541e-05
0.0008881592351230017
6.844370093995253e-05
0.0009668144790543745
6.522555838924679e-05
0.001052429376324621
6.184879480582139e-05
0.001145619626563022
5.831690865663189e-05
0.001247055215688649
5.463545351597474e-05
0.001357465752179295
5.081150604006197e-05
0.001477645736709774
4.685383957835784e-05
0.001608460605971814
4.277037470295298e-05
0.001750854700302603
3.857216765936005e-05
0.001905852552850757
3.427908799554074e-05
0.002074563630405982
2.987836245491464e-05
0.002258238515288472
2.533434115721534e-05
0.002458225527480047
2.063110739632169e-05
0.002675948355846772
1.575825136616235e-05
0.002912972488697662
1.07007090968524e-05
0.003171013253226325
5.383737544515095e-06
0.003451992336240839
-3.331478280117675e-07
0.003758002894524895
-6.353008341618627e-06
0.004091014427540529
-1.294637944706366e-05
0.004453797222797108
-2.121843178576578e-05
0.004849801631618181
-3.123960988856172e-05
0.005280840669876299
-4.142519324485122e-05
0.005748359356465256
-4.60715785305302e-05
0.00625161394200881
-3.868083881827409e-05
0.006793484477349382
0.007365216055862353
3.619792534359434e-09
1.347875872894237e-08
1.253248710664293e-08
4.082453631365097e-08
2.639456742264348e-08
6.934933156484865e-08
4.50600089504989e-08
9.987681373329028e-08
6.857167396217055e-08
1.332840594383296e-07
9.69935032174332e-08
1.705190922645624e-07
1.30523018462437e-07
2.126133845022877e-07
1.694407794191783e-07
2.606874307109159e-07
2.141149656078916e-07
3.159501835627831e-07
2.650863952586188e-07
3.796962287695406e-07
3.230279035586691e-07
4.533040272196771e-07
3.889543256605626e-07
5.382333562695694e-07
4.641073602470734e-07
6.360160204764665e-07
5.50283416078809e-07
7.482383724125317e-07
6.496711114269187e-07
8.765249291010007e-07
7.652435205385726e-07
1.02252454145309e-06
9.00458318177161e-07
1.187910305396054e-06
1.059615361892326e-06
1.374399891078266e-06
1.247347636627914e-06
1.583788278801877e-06
1.4688842937139e-06
1.817979376717e-06
1.729407036036349e-06
2.079007050139124e-06
2.034422761044591e-06
2.3690651714534e-06
2.389220959870344e-06
2.690567128698677e-06
2.799449771408113e-06
3.046253589184845e-06
3.270617315641957e-06
3.43933199424821e-06
3.808657329367975e-06
3.873634104180695e-06
4.419285226905957e-06
4.353779892375503e-06
5.108477177771578e-06
4.885236517183668e-06
5.881910583694508e-06
5.474113632880551e-06
6.745662020685311e-06
6.126969599666857e-06
7.705631716455488e-06
6.850912553101309e-06
8.768120324552691e-06
7.653755163252265e-06
9.939149851546163e-06
8.544103034849927e-06
1.12249832127473e-05
9.531521035732496e-06
1.263131490756573e-05
1.062663929208319e-05
1.416363549068234e-05
1.184115819471417e-05
1.58262450783019e-05
1.318796966154884e-05
1.762243632341694e-05
1.468134173645539e-05
1.955317196115408e-05
1.63370798742318e-05
2.161669693204063e-05
1.817248070111453e-05
2.380718779434827e-05
2.020573595585257e-05
2.61142296706387e-05
2.245605483318242e-05
2.852091322632841e-05
2.494390181171866e-05
3.100376261924939e-05
2.769290443151815e-05
3.353110305630467e-05
3.072943195736651e-05
3.606316968946976e-05
3.407927653302347e-05
3.855334821144616e-05
3.776679422171015e-05
4.095182345311026e-05
4.181395053028768e-05
4.320826534912608e-05
4.623989547149942e-05
4.527171999692465e-05
5.106517325916647e-05
4.708867429695617e-05
5.631260471945509e-05
4.861200732160115e-05
6.200188498709773e-05
4.980976452190195e-05
6.814620681395566e-05
5.067059696820552e-05
7.476017918939213e-05
5.119639889394412e-05
8.186564262536049e-05
5.142126381984808e-05
8.948082467481022e-05
5.142017805073624e-05
9.764285372430013e-05
5.129141999917362e-05
0.0001064114326219695
5.111758189844954e-05
0.0001158506807414837
5.095221033438395e-05
0.0001260897647797003
5.081494356703582e-05
0.0001372435156634151
5.068481397544589e-05
0.0001494135729571826
5.054137330284786e-05
0.0001626663187716225
5.038768654492954e-05
0.0001770860020334422
5.022837263222986e-05
0.0001927788701382222
5.006359863655702e-05
0.000209864747635793
4.989067099208352e-05
0.0002284661372041189
4.970897990351461e-05
0.0002487160756239963
4.951664124260878e-05
0.0002707608012533193
4.931238135227692e-05
0.0002947593957585729
4.909349968519281e-05
0.0003208848941813393
4.885795582490776e-05
0.0003493257173648371
4.860212447273897e-05
0.000380286965554546
4.832289897185457e-05
0.00041399188395217
4.801544584144157e-05
0.0004506834751422889
4.76752924232312e-05
0.0004906262449546383
4.729605531743556e-05
0.000534108104251018
4.687149836724356e-05
0.0005814424375085997
4.639327775027443e-05
0.0006329703593097867
4.585295119745131e-05
0.0006890631583828523
4.523976527366174e-05
0.000750124978091884
4.454260496183792e-05
0.0008165957141263965
4.374782245469747e-05
0.0008889541862319349
4.284110311692696e-05
0.0009677215860676755
4.180536634343208e-05
0.001053465239654633
4.062264240547738e-05
0.001146802690386638
3.927179369660355e-05
0.001248406165715677
3.77303330073981e-05
0.001359007512633946
3.597273273936883e-05
0.001479403414027959
3.397240544101093e-05
0.00161046119647048
3.169399570158888e-05
0.001753133182733278
2.909685447794664e-05
0.001908449921693024
2.613754027471429e-05
0.002077523004741744
2.279579586304493e-05
0.002261580448813364
1.906963744861525e-05
0.002461951742375067
1.495631647938318e-05
0.002680061826794013
1.038673061277206e-05
0.002917542126697311
5.253061976138269e-06
0.003176147031699679
-3.592509900421149e-07
0.003457604698472867
-6.167525532672113e-06
0.003763811249113915
-1.314011761596632e-05
0.004097987061794654
-2.093690431243126e-05
0.004461594066969533
-2.779911882696757e-05
0.004856663872034556
-3.173418553995366e-05
0.00528477575606213
-2.974027742237582e-05
0.005746365450526553
-2.269664973920048e-05
0.006244570314882286
-1.547355917124225e-05
0.006786261387657547
0.007349742496607969
1.448306192453411e-09
1.30513931936418e-08
3.912817360114302e-09
3.953070864940224e-08
7.282684285083811e-09
6.715248730965919e-08
1.151022897375061e-08
9.671440562679383e-08
1.675086777592035e-08
1.290653941149711e-07
2.307703783703852e-08
1.651218749322854e-07
3.069640254238523e-08
2.058780775280992e-07
3.977469187121389e-08
2.524080928134529e-07
5.059378789292819e-08
3.058599619815116e-07
6.352161801709362e-08
3.674457877144947e-07
7.899917109639436e-08
4.384323388923179e-07
9.767459767614142e-08
5.201322134233171e-07
1.202878302905372e-07
6.138920024714376e-07
1.479322145269132e-07
7.210780129327416e-07
1.817799483598272e-07
8.430750113831825e-07
2.234142011354927e-07
9.812985269840437e-07
2.744152159877097e-07
1.137224596484615e-06
3.367230415358616e-07
1.31243623995344e-06
4.120983584491497e-07
1.508665283539616e-06
5.025538579241152e-07
1.727816650777659e-06
6.09795939584882e-07
1.971963395617344e-06
7.357688332148941e-07
2.243343076244653e-06
8.821261164532055e-07
2.544367344612593e-06
1.05092648974741e-06
2.877670551074388e-06
1.244140157868788e-06
3.246242913143144e-06
1.464348647026275e-06
3.653617441881003e-06
1.714159337596022e-06
4.104071870441221e-06
1.996861040969047e-06
4.602709731110563e-06
2.315829248526567e-06
5.1552324205184e-06
2.675225266836753e-06
5.767737336619929e-06
3.079379603551281e-06
6.446834662272894e-06
3.533490548004353e-06
7.199800855758204e-06
4.043002990276695e-06
8.034660090080455e-06
4.614413677832582e-06
8.960262665903119e-06
5.25473996779473e-06
9.986377551060132e-06
5.972250190817783e-06
1.1123798144872e-05
6.775829026639077e-06
1.238445321827424e-05
7.675788209534454e-06
1.378153246832972e-05
8.683303500498282e-06
1.532962628328053e-05
9.811046937227794e-06
1.704488887060744e-05
1.107140375333453e-05
1.894544412011125e-05
1.247578803632059e-05
2.105182780694444e-05
1.403284604837041e-05
2.338691449389405e-05
1.575000392280968e-05
2.597591495437891e-05
1.763285492051467e-05
2.884666519092134e-05
1.968210124930302e-05
3.203021624004951e-05
2.188986481266517e-05
3.555912989550969e-05
2.42384073860463e-05
3.94656150145886e-05
2.669720925186694e-05
4.378122039124897e-05
2.922177932568818e-05
4.854084343321348e-05
3.175245620109921e-05
5.378209818870913e-05
3.421874551859058e-05
5.953589632668281e-05
3.654033280429114e-05
6.582486736533731e-05
3.86261108561278e-05
7.267480558166866e-05
4.038496499666419e-05
8.010717101815825e-05
4.173864989150897e-05
8.812771859665687e-05
4.265018152087223e-05
9.673190629651748e-05
4.314383461458804e-05
0.000105918615522967
4.327732022544658e-05
0.0001157180312374206
4.318146304967989e-05
0.0001261867177311656
4.299739025083666e-05
0.0001374285437973041
4.279774055229945e-05
0.000149614373119982
4.260491055813364e-05
0.0001628600343337394
4.239795019401246e-05
0.0001772940206874621
4.216761188880039e-05
0.0001930099528361602
4.191582387791827e-05
0.0002101174866331106
4.164021984182497e-05
0.0002287423766696817
4.133890394786098e-05
0.0002490182496995017
4.100918434100078e-05
0.000271091044626333
4.064942611654099e-05
0.0002951199342297885
4.025661848680663e-05
0.0003212781505595061
3.982877615477102e-05
0.0003497542816433086
3.936251151304194e-05
0.000380753613928593
3.885547392258883e-05
0.0004144995973257357
3.83038358565238e-05
0.0004512354569936673
3.770477675086876e-05
0.0004912259425864959
3.705395177538492e-05
0.0005347592325036449
3.634798861008564e-05
0.0005821490077884542
3.5581914178269e-05
0.0006337367094551837
3.475165557647344e-05
0.0006898939980138885
3.385145028864235e-05
0.0007510254413734276
3.287630850003592e-05
0.0008175714119670994
3.181945961623445e-05
0.0008900112726613949
3.06747330738154e-05
0.0009688668396817372
2.943404015485214e-05
0.001054706164889027
2.808957508237964e-05
0.001148147647964279
2.663149560658363e-05
0.001249864455276955
2.504987878340813e-05
0.001360589577478874
2.33324577340649e-05
0.001481121040282555
2.146626494288235e-05
0.001612327784283484
1.944362658563191e-05
0.001755156002501711
1.725842650083315e-05
0.001910635454022206
1.489438538865838e-05
0.002079887206883024
1.234120270098997e-05
0.002264133898459051
9.581056390172403e-06
0.002464712033658601
6.565016147715953e-06
0.002683078069099753
3.292667651711171e-06
0.002920814603726668
-2.066519383592923e-07
0.003179646503688976
-4.05787819056775e-06
0.003461456036153211
-8.625622422604766e-06
0.003768379109941918
-1.333597040069799e-05
0.004102697473373648
-1.714391563777805e-05
0.0044654020615034
-1.826952928639349e-05
0.004857789497698523
-1.580635350120503e-05
0.005282312592895854
-1.125913312414087e-05
0.005741818230333317
-5.968026690409863e-06
0.006239279207753524
1.09677989611903e-06
0.006779196580121637
0.007350839276175085
7.808247395191829e-10
1.245576750087912e-08
2.716978899176567e-09
3.772644402734592e-08
5.896051703887628e-09
6.408727138601531e-08
1.03692784405428e-08
9.229960812000663e-08
1.63022745082224e-08
1.231740294745318e-07
2.385920641259814e-08
1.575863846665948e-07
3.325957132834712e-08
1.964885439688065e-07
4.477005962575963e-08
2.409113716345678e-07
5.867991894342114e-08
2.919594957978845e-07
7.534613899025248e-08
3.508010008615569e-07
9.513872007642214e-08
4.186567308397222e-07
1.185129005788397e-07
4.967910169721464e-07
1.45928822208962e-07
5.865021642294721e-07
1.779367321393418e-07
6.89113332553967e-07
2.150686881211245e-07
8.059755268774894e-07
2.579364545620885e-07
9.384806471542801e-07
3.071129526981772e-07
1.088082887173754e-06
3.632631237438879e-07
1.256339083236547e-06
4.270206569698281e-07
1.444942488559533e-06
4.991517445671628e-07
1.655739234317182e-06
5.80405720218373e-07
1.890741684895e-06
6.716672375932836e-07
2.152134285031192e-06
7.737926465406183e-07
2.442271359397057e-06
8.878100667364338e-07
2.763704108886073e-06
1.014790038559153e-06
3.11928900386052e-06
1.156092358099487e-06
3.512364230972471e-06
1.313235032485753e-06
3.946953014993642e-06
1.488096562192548e-06
4.42789634146034e-06
1.682643223023238e-06
4.96070799449751e-06
1.899132980752619e-06
5.551295456442287e-06
2.139987261368058e-06
6.206001935463148e-06
2.408036638381119e-06
6.931799623241994e-06
2.706352236940408e-06
7.736365618339659e-06
3.03850208022277e-06
8.628161694573713e-06
3.408378802737221e-06
9.616522188170011e-06
3.820475891383613e-06
1.07117512494476e-05
4.279720474228614e-06
1.192523087746255e-05
4.791767372559225e-06
1.326953765966632e-05
5.362843906910545e-06
1.475857335385366e-05
6.000070799348285e-06
1.640771666385305e-05
6.711559388296414e-06
1.823398150774096e-05
7.507249030668237e-06
2.025619626874068e-05
8.398973323780677e-06
2.249521953631383e-05
9.40077460185331e-06
2.497417620369305e-05
1.052876859627721e-05
2.771870564096969e-05
1.180097799184681e-05
3.075807638153816e-05
1.32346023605395e-05
3.41255471747483e-05
1.484291170219886e-05
3.785738660966107e-05
1.663086626689227e-05
4.199332119377866e-05
1.859407577755411e-05
4.657773125579031e-05
2.071892109969795e-05
5.165732510178719e-05
2.298016341972301e-05
5.727477196672033e-05
2.533610432024609e-05
6.346902440080085e-05
2.772735003477515e-05
7.028371263346303e-05
3.007400087890964e-05
7.776066508508642e-05
3.226797925482635e-05
8.593395783549997e-05
3.417457146422506e-05
9.482554185194404e-05
3.566464664901899e-05
0.0001044288710386829
3.66601402750624e-05
0.0001147229127263499
3.716920379904721e-05
0.0001256781572890313
3.728913877182753e-05
0.0001373091406671726
3.71991497219689e-05
0.0001497050286923834
3.703483468896563e-05
0.0001630249603465522
3.685846041843385e-05
0.000177471093519233
3.667536934914767e-05
0.0001931936147401028
3.647568320916466e-05
0.0002103178406617896
3.62568295253138e-05
0.000228961759431052
3.601771622680581e-05
0.0002492580071805042
3.575634262729129e-05
0.0002713529206556262
3.547092378919023e-05
0.0002954059776390793
3.515895811533517e-05
0.00032159059405633
3.481829636941683e-05
0.0003500955440919704
3.44460277779144e-05
0.0003811263331144853
3.403954681321682e-05
0.000414906650392394
3.359543957556226e-05
0.000451679978135789
3.311057869092333e-05
0.0004917113420764962
3.258097543543671e-05
0.0005352892204007428
3.200285800152653e-05
0.0005827276228152844
3.137156712671602e-05
0.0006343683427754166
3.068254787313597e-05
0.0006905834632201264
2.993044171460168e-05
0.0007517778381207315
2.911010053199298e-05
0.0008183921418487716
2.821550286282914e-05
0.0008909061072167569
2.724071313534923e-05
0.0009698419606483762
2.617868722372952e-05
0.001055768379129412
2.502325517505229e-05
0.001149303357589777
2.37654761804312e-05
0.001251122379531696
2.239567572023196e-05
0.001361959607815353
2.090492546362474e-05
0.001482611909591557
1.928551112726778e-05
0.001613947386576302
1.753061830630434e-05
0.001756910994980946
1.563131351309666e-05
0.001912534908359423
1.357011821030237e-05
0.002081948491180162
1.13233824351197e-05
0.002266380749313569
8.89665394993432e-06
0.002467138848420706
6.278146440030446e-06
0.00268569666493928
3.439263167145456e-06
0.002923653565334214
2.078002510086168e-07
0.003182878043973551
-3.346496425302007e-06
0.003465010366791767
-6.764039002690315e-06
0.003771796703583186
-8.467750931825691e-06
0.004104401185263683
-7.86873532844442e-06
0.004464803072788767
-5.633680274123357e-06
0.004855554442019346
-2.549892865893537e-06
0.005279228815693888
4.646117414024417e-07
0.005738803723584809
2.414712581324393e-06
0.006237329104885367
3.65216576242142e-06
0.006777959123635273
0.00735449144132472
2.607613136229252e-10
1.188762347034555e-08
1.619075085684116e-09
3.600555657363309e-08
4.215610984521359e-09
6.116385404541071e-08
8.10939495440781e-09
8.808930157910857e-08
1.344598678761573e-08
1.17556188089565e-07
2.037484253196452e-08
1.504025187450678e-07
2.911979696389866e-08
1.875419132476218e-07
3.987829688988719e-08
2.29968834513912e-07
5.295153901151221e-08
2.78756202235048e-07
6.858615323181149e-08
3.350475001306137e-07
8.71358728262814e-08
4.00047558180609e-07
1.088497153882735e-07
4.750144879111855e-07
1.340935585115507e-07
5.612517827776008e-07
1.630866714059991e-07
6.6010021192243e-07
1.961591757503446e-07
7.729378825146658e-07
2.334618288850261e-07
9.011883951369998e-07
2.752736881181005e-07
1.046332139629194e-06
3.217088461717242e-07
1.20993351016225e-06
3.730633672559001e-07
1.393665761901245e-06
4.295209019475024e-07
1.599322351662431e-06
4.915110770005236e-07
1.828837737240174e-06
5.593880518303925e-07
2.084303335165672e-06
6.337779244925194e-07
2.367971443970747e-06
7.152471215698504e-07
2.682283042214851e-06
8.046605390617521e-07
3.029966223433476e-06
9.028727064946629e-07
3.41420101782348e-06
1.011107304032591e-06
3.838809190387154e-06
1.130618759874307e-06
4.308435216181216e-06
1.262924729252303e-06
4.828494109146079e-06
1.409458973115642e-06
5.404813736467454e-06
1.571961595620751e-06
6.043593100697228e-06
1.75218098798082e-06
6.751635593252948e-06
1.952217796739495e-06
7.536425213709629e-06
2.174235313997529e-06
8.406203175294587e-06
2.42080550387614e-06
9.370051679547303e-06
2.694634179303942e-06
1.04379859158963e-05
2.998913406698148e-06
1.162105547683443e-05
3.337062981278764e-06
1.293145648858483e-05
3.713088597814222e-06
1.438265601416743e-05
4.131348828141231e-06
1.598953051391453e-05
4.59692412130625e-06
1.776852029956809e-05
5.115398378125668e-06
1.973780265077814e-05
5.69325031511683e-06
2.191748722550688e-05
6.337677145553188e-06
2.432983800540048e-05
7.056991401589503e-06
2.699951922829016e-05
7.861289680200923e-06
2.99538776312451e-05
8.763730003356906e-06
3.322324532675963e-05
9.779967133772026e-06
3.684126438351926e-05
1.092773816903896e-05
4.084570585131593e-05
1.222569961329573e-05
4.527990812313902e-05
1.369124796928951e-05
5.01919596853318e-05
1.533291432055866e-05
5.563327766869038e-05
1.714387413463251e-05
6.165828291492522e-05
1.910703638603127e-05
6.832076877021429e-05
2.11962256936095e-05
7.567175023679558e-05
2.336495074739454e-05
8.376553015076852e-05
2.553065554684177e-05
9.266021912824438e-05
2.756446746059048e-05
0.0001023954999581763
2.930892592826687e-05
0.0001129790282192696
3.060659477116252e-05
0.0001243811788893584
3.137269489333158e-05
0.0001365439317962462
3.166530263882497e-05
0.0001494134554615347
3.164392119443567e-05
0.0001630475354463179
3.150653194910038e-05
0.0001776097131697648
3.134071982156809e-05
0.000193360641289169
3.116517182238597e-05
0.0002104945363166922
3.097805450086999e-05
0.0002291499481773383
3.077487551190808e-05
0.0002494621959202701
3.055349752285498e-05
0.0002715752319357956
3.03124426936553e-05
0.0002956479168310308
3.004993512730046e-05
0.0003218539068477375
2.976407802452762e-05
0.000350382174412791
2.945270943955441e-05
0.0003814383932721141
2.911359691277121e-05
0.0004152464394701032
2.874416369211623e-05
0.0004520500040706522
2.834174954513537e-05
0.0004921143455966387
2.790329417026665e-05
0.0005357281808617864
2.742567765621424e-05
0.0005832057476423035
2.690535470785201e-05
0.0006348890803855482
2.633894859125192e-05
0.0006911503050356272
2.57220197215158e-05
0.0007523951063887589
2.504950092479212e-05
0.0008190650360321496
2.431537570085815e-05
0.0008916405152553244
2.351326287440457e-05
0.0009706443975148331
2.263673449278429e-05
0.001056645142912742
2.167493093327109e-05
0.001150265439340979
2.062476249565352e-05
0.001252172746999937
1.94857264396175e-05
0.001363098879532339
1.82483180289511e-05
0.001483849490217482
1.689620247289619e-05
0.001615299698631966
1.54035594121621e-05
0.001758403783445093
1.375191810521994e-05
0.001914186710072151
1.195725448246653e-05
0.002083743294567065
1.003602872829005e-05
0.002268302110444896
7.931317680847492e-06
0.002469243678637356
5.49975450645261e-06
0.002688128365932505
2.787180657805019e-06
0.002926366211649315
1.784417590731084e-07
0.003185486889540038
-1.720574631353175e-06
0.00346690940820963
-2.160097484208833e-06
0.003772236283500998
-1.348869024812093e-06
0.004103589962837505
2.329744891103321e-07
0.004463221259318442
2.158908512585078e-06
0.004853628511093542
3.875286102903668e-06
0.005277512449392684
4.981661873097311e-06
0.005737697346168225
5.162136101423381e-06
0.006237148627100979
3.980880481857779e-06
0.006779140374297869
0.007358472320647329
6.031718942844573e-10
1.144462410039124e-08
2.194392626568483e-09
3.466379553478828e-08
4.730674138940679e-09
5.888458911040213e-08
8.310444599046612e-09
8.480683114784238e-08
1.300622596576969e-08
1.131764617386303e-07
1.89330226667206e-08
1.448017774227077e-07
2.624843919823385e-08
1.805660743790473e-07
3.511812987420934e-08
2.214344704548802e-07
4.576929381014695e-08
2.684536708085092e-07
5.840542128187085e-08
3.227460703962716e-07
7.329517424657693e-08
3.855018880195911e-07
9.066439122908075e-08
4.579721572127816e-07
1.107893216885626e-07
5.414620979423054e-07
1.338800135110442e-07
6.373237023225841e-07
1.601843614514508e-07
7.469525540969603e-07
1.898754784933779e-07
8.717936988201146e-07
2.231570389172703e-07
1.013350405503334e-06
2.601674354605592e-07
1.173198371417653e-06
3.011031583710619e-07
1.353006564453639e-06
3.461269733505135e-07
1.554550440647538e-06
3.954913625871226e-07
1.779726131916281e-06
4.494555947361875e-07
2.030567322053646e-06
5.084005017072493e-07
2.309255024044386e-06
5.727421157493388e-07
2.618146845731387e-06
6.430451756729827e-07
2.959869686455083e-06
7.199522409620591e-07
3.337479871356283e-06
8.043029204356806e-07
3.754647793213328e-06
8.970577765591442e-07
4.215852705069286e-06
9.993402773016193e-07
4.726390255663638e-06
1.112294163392176e-06
5.292023728093322e-06
1.237188559276523e-06
5.918870142976158e-06
1.37536827416894e-06
6.613614232110478e-06
1.52835379622322e-06
7.383606442683187e-06
1.697773759201493e-06
8.236938313682478e-06
1.885465291398316e-06
9.182524479016732e-06
2.09341246744562e-06
1.023019225983306e-05
2.32385110030363e-06
1.139077994059103e-05
2.579215673336737e-06
1.267624492828594e-05
2.862251656143607e-06
1.409978315009528e-05
3.175974527105096e-06
1.56759611928453e-05
3.523795723056098e-06
1.74208628468913e-05
3.909501460903599e-06
1.935225206092483e-05
4.337399592835033e-06
2.148975498387598e-05
4.812331104738733e-06
2.385506442967874e-05
5.339848813264762e-06
2.647217091063476e-05
5.926262951136888e-06
2.936762556394625e-05
6.578841310866462e-06
3.25708411388649e-05
7.30584587800434e-06
3.61144292430252e-05
8.117148451464832e-06
4.003458552311709e-05
9.025766320874864e-06
4.437147230652287e-05
1.004835278066972e-05
4.916957314117e-05
1.120303749562476e-05
5.447879704140247e-05
1.250631715775555e-05
6.035522836462298e-05
1.396865395270179e-05
6.685866905269953e-05
1.559034567326837e-05
7.40503265690416e-05
1.736302548656862e-05
8.199313857482658e-05
1.926598193928679e-05
9.075759544478615e-05
2.124512750317207e-05
0.0001004167345268531
2.31995225682099e-05
0.0001110250993784102
2.497322472010676e-05
0.0001226080233696929
2.637946297856748e-05
0.0001351383948403441
2.726294051437387e-05
0.0001485307822669536
2.762408944264534e-05
0.0001626873600101869
2.763159511654558e-05
0.0001776032253462968
2.750063025995018e-05
0.0001934926602172748
2.734484312819212e-05
0.0002106512808110259
2.717413779709401e-05
0.0002293215362708403
2.698859637775733e-05
0.000249648505111699
2.678675275996061e-05
0.0002717777679265804
2.656691769255374e-05
0.0002958683517986586
2.632755076545898e-05
0.0003220938061931888
2.606695204868407e-05
0.0003506432328539824
2.578328540284595e-05
0.0003817224633461233
2.547452509123685e-05
0.0004155555425741513
2.513847507626007e-05
0.0004523863427323792
2.477275097169668e-05
0.0004924803177732527
2.437471699514426e-05
0.0005361264158300317
2.394149241948635e-05
0.0005836391486677166
2.346982828375621e-05
0.0006353608777795031
2.295601982721074e-05
0.0006916642353631261
2.239639355780671e-05
0.0007529548178200922
2.178735845124631e-05
0.0008196741517955906
2.112507035308422e-05
0.0008923028522866513
2.040543198664764e-05
0.0009713640853029839
1.962337726882784e-05
0.001057427224258189
1.87764223870903e-05
0.001151112421658316
1.785453121664402e-05
0.001253094647402707
1.684480550145368e-05
0.001364108617072241
1.573491305114693e-05
0.001484959393246792
1.452567632398479e-05
0.001616508938393482
1.322774863996899e-05
0.001759701724438809
1.183180415390142e-05
0.001915582659986211
1.030586033675777e-05
0.00208526925414703
8.543909790267294e-06
0.002270064091756563
6.589074654301103e-06
0.00247119852917428
4.665325546004018e-06
0.002690052157320621
3.106412016107393e-06
0.0029279251092036
2.327089399038878e-06
0.003186266242415405
2.438869318223662e-06
0.003466797594214283
3.166779987871299e-06
0.003771508394867718
4.284224616784308e-06
0.004102472489903467
5.490522092653155e-06
0.004462014977988936
6.511161944921448e-06
0.004852607857254807
7.144095818591133e-06
0.00527687952170052
7.199779858903617e-06
0.005737641654441221
6.425402465954171e-06
0.006237922999759557
4.460597969426018e-06
0.006781105171274724
0.007362932917228294
5.751609421564429e-10
1.108754542020368e-08
1.885812401028077e-09
3.358227033806374e-08
3.936055000838878e-09
5.704738328446939e-08
6.780977802162903e-09
8.216096071793265e-08
1.049039712530984e-08
1.096460194692482e-07
1.519400687336048e-08
1.40286698730366e-07
2.099320478934317e-08
1.749413537099587e-07
2.80727820149648e-08
2.145504597388979e-07
3.657250583233286e-08
2.60137918353106e-07
4.67218505523905e-08
3.128066411490516e-07
5.86912845802639e-08
3.737316858336956e-07
7.273352027923054e-08
4.441540038369551e-07
8.903181857220554e-08
5.253749253410329e-07
1.078380895977095e-07
6.187500977280716e-07
1.29320047906801e-07
7.256865397586795e-07
1.536995664101234e-07
8.476478880629987e-07
1.811032707029907e-07
9.861599405247586e-07
2.117134385980805e-07
1.142815573702377e-06
2.456319915647948e-07
1.319291032104949e-06
2.830383692336272e-07
1.517359238496035e-06
3.240531794882319e-07
1.738899521515904e-06
3.689078471963961e-07
1.985911817344481e-06
4.178052718933979e-07