/*--------------------------------*- C++ -*----------------------------------*\
| =========                 |                                                 |
| \\      /  F ield         | OpenFOAM: The Open Source CFD Toolbox           |
|  \\    /   O peration     | Version:  v1812                                 |
|   \\  /    A nd           | Web:      www.OpenFOAM.com                      |
|    \\/     M anipulation  |                                                 |
\*---------------------------------------------------------------------------*/
FoamFile
{
    version     2.0;
    format      ascii;
    class       volVectorField;
    location    "0.00000056";
    object      U;
}
// * * * * * * * * * * * * * * * * * * * * * * * * * * * * * * * * * * * * * //

dimensions      [0 1 -1 0 0 0 0];


internalField   nonuniform List<vector> 
44064
(
(0.01204029917389829 2.085846275297391e-05 1.254753789281756e-19)
(0.03558806872407745 6.23836387497299e-05 3.836287549522538e-19)
(0.05878907749404742 0.0001033978429226433 6.53603441504625e-19)
(0.08181397698340408 0.0001442286975972965 9.403435574944079e-19)
(0.1048198824899736 0.0001851734199380665 1.241195576508461e-18)
(0.1279515096200343 0.0002264691253428421 1.602449393061947e-18)
(0.1513415358918883 0.0002683268538517557 1.984649538497067e-18)
(0.1751104251813256 0.0003109416798130073 2.341530945381249e-18)
(0.199366123421699 0.0003544915541528271 2.740587166002857e-18)
(0.2242039146569423 0.0003991358848987799 3.070688286378186e-18)
(0.2497063068814369 0.0004450146899968986 3.441817922286756e-18)
(0.2759425356192736 0.00049224815497401 3.841383980170456e-18)
(0.302966997195507 0.0005409355474047244 4.27842035689356e-18)
(0.3308158250936271 0.0005911544307784079 4.743132590483709e-18)
(0.3595012875466643 0.0006429598283835984 5.174201663332695e-18)
(0.3890029631674525 0.0006963852132877751 5.639612357512707e-18)
(0.4192547702512183 0.000751444699730922 6.165029827781512e-18)
(0.4501275848192044 0.0008081384150094201 6.749441047253501e-18)
(0.48141153825589 0.0008664522951029903 7.380432826242713e-18)
(0.5128142806437471 0.0009263602528034453 7.862271169114496e-18)
(0.5439894524137693 0.0009878337912300823 8.339300213039397e-18)
(0.5745876881861567 0.001050853145417377 8.684484906396212e-18)
(0.6043084857605011 0.001115410819384149 8.677154406337847e-18)
(0.6329341913211038 0.001181511234272385 8.818760125928799e-18)
(0.6603387786776279 0.00124916530693021 8.670138118783065e-18)
(0.6864759914333777 0.001318382739216563 8.652184879891871e-18)
(0.7113569730282461 0.001389159070636937 8.317564896780097e-18)
(0.735028585746324 0.001461465931999185 8.049134178384246e-18)
(0.7575564588393491 0.001535245217570065 7.860097805117549e-18)
(0.7790121849522443 0.001610403602808066 7.765263901678422e-18)
(0.7994646737527114 0.001686806347995022 7.793898534184227e-18)
(0.8189756731245286 0.001764275814538042 7.720141444363204e-18)
(0.8375976402570848 0.001842593985211917 7.573053525929469e-18)
(0.8553688662812429 0.001921492092748549 7.289078984655791e-18)
(0.8723084427926996 0.002000638298628465 7.135723809173466e-18)
(0.888416127273947 0.002079639258876637 7.09920922080703e-18)
(0.9036730286635296 0.002158038215692547 7.167930359518088e-18)
(0.9180400075390669 0.002235300321864339 7.348550427979917e-18)
(0.9314509075119233 0.002310784196352377 6.562650815950494e-18)
(0.9437982381991377 0.002384004822756131 5.750807165636912e-18)
(0.9550256617408827 0.002454203813460045 5.020744747501553e-18)
(0.965104614497222 0.002520630716913303 1.444233542585532e-18)
(0.9740062409216692 0.002582665549833833 -2.007170167479537e-18)
(0.9817053236481537 0.002639647709834149 -6.371090893382285e-18)
(0.9881868112449587 0.002690983770957429 -3.873204399519974e-18)
(0.9934528847951614 0.00273609933316292 -7.997445231891661e-18)
(0.9975293315940759 0.002774505392652333 -5.820046959296553e-18)
(1.000472390072233 0.002805874522687101 -4.597254030486051e-18)
(1.002375334706309 0.002830288575186672 -3.405768204041595e-18)
(1.003372102273631 0.002848213515606331 -2.719018607315898e-18)
(1.003632978396725 0.002855643420521946 -3.700761306720028e-18)
(1.00345683993371 0.002831199593018068 -4.897502881569149e-18)
(1.003146881331491 0.002888796923737219 -7.35491017330258e-18)
(1.002864121546672 0.002884777307751227 -6.427296706303003e-18)
(1.002374763701793 0.002837679795086903 -2.205995662629299e-17)
(1.001832637142727 0.002821402936436355 -7.235477633921545e-18)
(1.001483486343403 0.002822015454294259 -5.899995150818086e-19)
(1.001357953726671 0.002807068805556691 4.043140581447474e-18)
(1.001448889878216 0.002805291124801409 8.003903644309767e-18)
(1.001640288280364 0.002806441142885136 3.687025268460377e-17)
(1.001702738132216 0.002785073999890718 5.158159182047048e-17)
(1.001654204404637 0.002762013373553659 1.523364574525475e-17)
(1.001586545634764 0.002743918000156517 3.163619792074097e-18)
(1.001556024294423 0.002730359095972087 2.620779443378292e-18)
(1.001545129368594 0.002713078413480744 2.054444646182399e-18)
(1.001532180697787 0.002690306727395561 -2.465852437976704e-17)
(1.001518296089424 0.002667129190604601 3.231006445766398e-17)
(1.001504415955063 0.002642391719986244 9.886846171606232e-18)
(1.00148952584616 0.002615128834290878 -1.375512726581817e-18)
(1.001473221429975 0.002585475707427812 -1.700340617149645e-19)
(1.001455588612777 0.002553394516593848 -2.576520251304313e-17)
(1.001436572677346 0.002518649273244253 -5.155699104392639e-18)
(1.001416090508397 0.002481079734241879 -1.360943244656838e-18)
(1.001394060040664 0.002440528085855784 1.102308395745233e-18)
(1.001370396918878 0.002396828604003677 -8.898854411067622e-18)
(1.001345016889194 0.002349819369713896 1.553121811000846e-18)
(1.001317834735467 0.002299339381594793 -9.009136504758691e-19)
(1.001288780496295 0.002245243520558303 6.446375851187967e-17)
(1.001257762227044 0.002187374064975145 3.406791467172935e-19)
(1.001224764643722 0.002125626334732127 8.477829587102246e-19)
(1.001189673672864 0.002059870106732213 7.887933034848762e-17)
(1.001152374249303 0.00199000850037837 1.054895935442725e-17)
(1.001112800063891 0.001915977022860102 3.614460894410436e-18)
(1.001070901566138 0.001837710985469716 3.534666996892384e-17)
(1.001026799950508 0.001755303130904243 -3.477593318918313e-18)
(1.000980042532973 0.00166854673283723 1.982301482093071e-17)
(1.000931382193811 0.001577742449340093 -1.691684093956614e-17)
(1.000881051630766 0.001483022858597884 3.239996431875623e-17)
(1.000828369322247 0.001384280811805723 3.514522006220039e-17)
(1.000773725973582 0.001282835230772252 6.764877365992229e-17)
(1.000708893367489 0.001177050933932928 3.059082048463063e-17)
(1.000632851291732 0.001067461182284173 5.597462481170246e-17)
(1.000552809018921 0.0009523988447319286 4.257831660107527e-17)
(1.000495048651054 0.0008383148023483059 5.974387517865423e-17)
(1.000465690766044 0.0007248521540369903 4.141190176647282e-17)
(1.000437318152107 0.0006032900777881127 7.256777792398252e-17)
(1.000413056063895 0.000477384056875419 4.970063460181121e-17)
(1.000394465538957 0.0003470156478360461 2.782620888323756e-17)
(1.000375494054497 0.000211019517251212 7.937541047449363e-17)
(1.000353135963057 6.635624874346211e-05 1.523639176311862e-17)
(1.00036503392078 -8.83303220519784e-05 3.626624750611307e-18)
(1.000368964962884 -0.0002550052499959255 3.60663812857513e-18)
(1.000305451434454 -0.000439844098989523 -4.522638362471043e-17)
(1.00033294295962 -0.0006102695727271498 4.004752966563925e-17)
(1.000983193739344 -0.001349065512022662 1.610840676712209e-17)
(1.000813238839026 -0.001648285648294657 9.499733943220526e-18)
(0.999366024313494 0.01175227082086635 1.781266731272587e-17)
(0.9948351088029079 -0.04087787366022175 -8.775788903547744e-18)
(0.008513289047152843 2.489692994447853e-08 -2.691211895441348e-20)
(0.02559935526087307 2.104806699962794e-07 -7.850194839711114e-20)
(0.04286806186853779 5.479805780812161e-07 -1.765863455593815e-19)
(0.06044318297267625 1.035847871143796e-06 -2.996625903335267e-19)
(0.07844837186355193 1.667936381661133e-06 -4.277611200933088e-19)
(0.09700459691961513 2.444839464807261e-06 -5.447704429076022e-19)
(0.1162250802769346 3.370843890465452e-06 -6.723361536228602e-19)
(0.1362079186571901 4.453011207116145e-06 -8.083251506055761e-19)
(0.1570281237664566 5.70095476656109e-06 -9.207248904548872e-19)
(0.1787317996489227 7.127843566293067e-06 -1.003240391609301e-18)
(0.2013338234956024 8.751547564826626e-06 -1.024987868034859e-18)
(0.2248174149301415 1.059659439095195e-05 -9.833677054915027e-19)
(0.2491326031167868 1.269625956958686e-05 -9.20960918139207e-19)
(0.2741932301197101 1.509530849662337e-05 -8.857168798135061e-19)
(0.2998731197571122 1.785309769977065e-05 -7.310914105651557e-19)
(0.3260034708113206 2.104653910234749e-05 -5.984477627085462e-19)
(0.3523774583941271 2.477210128095559e-05 -4.611432209609782e-19)
(0.3787640264699418 2.914632368814331e-05 -2.413736545301423e-19)
(0.4049269727729555 3.430388042110711e-05 -5.808975201216312e-20)
(0.4306438070746855 4.039308422666164e-05 2.19215240996668e-19)
(0.4557227135691071 4.757098508263797e-05 5.584237923798469e-19)
(0.480012856071033 5.599790724921924e-05 1.123207577602409e-18)
(0.5034140863812364 6.583444117152145e-05 1.642619873686337e-18)
(0.5258877309860119 7.724380794300902e-05 2.259439381558828e-18)
(0.5474548297509705 9.039240049540413e-05 2.845383288421993e-18)
(0.5681897358154671 0.0001054483038540452 3.403336830973817e-18)
(0.5882130665403161 0.0001225816025669943 3.938416993357462e-18)
(0.6076737956179428 0.0001419700904148972 4.462609563155527e-18)
(0.6267120307056087 0.0001637971781893024 4.929941966502495e-18)
(0.6454279920948245 0.0001882350349495353 5.605683651766231e-18)
(0.6638899789866889 0.0002154574332590455 5.812740754821396e-18)
(0.6821512297421138 0.0002456509930281044 6.052050095183239e-18)
(0.7002540430248987 0.0002789917868774788 6.289483832522655e-18)
(0.718245197710271 0.0003156635236936349 6.516728045008514e-18)
(0.7361739659947028 0.0003558590493205464 6.727766004649985e-18)
(0.7540755057455947 0.0003997425400206532 6.890942531703989e-18)
(0.7719751008502895 0.0004474545117002671 7.52580918073194e-18)
(0.7898962310921668 0.0004991097585975601 8.026580499430091e-18)
(0.807861699973234 0.0005548099547799378 7.91116789040123e-18)
(0.8258734741228849 0.0006144954907883113 7.480992075197132e-18)
(0.8438315847303153 0.0006781268996032942 8.290479795727691e-18)
(0.8615477176832245 0.0007454904355911674 7.866071487635951e-18)
(0.8788133668528493 0.0008159483339789639 7.686289945017027e-18)
(0.8955491136824087 0.0008890033040473385 7.782906062447747e-18)
(0.9117239198625249 0.000964129151657779 7.970289846783822e-18)
(0.9271813440291742 0.001039913927808571 6.649028044890668e-18)
(0.9417554035501368 0.001115153409698512 4.973873050751337e-18)
(0.9552681357445253 0.001188379032120148 1.080975957455248e-18)
(0.9675274299059072 0.001257972380680107 -3.808302644087652e-18)
(0.9783232237852495 0.001322523152907619 -9.744004481009446e-18)
(0.9874484548094565 0.001383305213771959 -1.420864313156299e-17)
(0.9947293011994057 0.001445621857394023 -1.183139013010845e-17)
(1.000026039141485 0.001455280526883637 -1.136968908879129e-17)
(1.003421128202397 0.001486321110989412 -1.704029596364809e-17)
(1.005273457801638 0.001528273602537869 -3.295953813664785e-17)
(1.005838293561574 0.001557566806734874 -3.129336402554238e-17)
(1.005693885285618 0.001523000945129138 -3.289341265595111e-17)
(1.005392695648212 0.001526547630075487 -1.31802848124244e-17)
(1.00473018113891 0.00153839520899344 1.622343912236185e-17)
(1.004336328521341 0.001520840054539396 4.147129948347896e-17)
(1.004440884784555 0.001511613183172873 5.14527224125851e-17)
(1.004675868008395 0.001511670659171113 3.785472958763921e-17)
(1.00471360628121 0.001512435161270015 1.580868159977184e-17)
(1.004672126253824 0.001507891340917633 -2.434854967534106e-17)
(1.004624263941953 0.001501131564329242 -5.210258702733644e-18)
(1.004597893077367 0.001495947774957246 -2.995425687353453e-17)
(1.004566449049069 0.001491343184953315 1.683669260235011e-17)
(1.004530413996247 0.001486193283748894 1.153597795388673e-17)
(1.004492131124772 0.001480516184925766 3.753168953473417e-17)
(1.004451182532423 0.001474596391840889 1.678791439080828e-18)
(1.004406932389043 0.001468311335040338 -3.005164361431932e-17)
(1.004359252265938 0.001461534138371209 -1.693256771769167e-17)
(1.004307977955974 0.001454201706529335 2.112292466984579e-17)
(1.004252921991072 0.001446218027075551 -8.555805113109234e-19)
(1.00419391016882 0.001437460751863544 6.212574622443649e-17)
(1.004130781935674 0.001427791769098165 -3.097144205830889e-18)
(1.004063391639489 0.00141704678279983 -9.662892002343269e-18)
(1.003991604327118 0.001405042591225295 -4.638763731358133e-18)
(1.003915331196469 0.001391552747923061 9.224411331180372e-18)
(1.003834441006834 0.001376334198092284 -3.017412039309926e-18)
(1.003748995971734 0.001359093107445403 2.623599442008468e-17)
(1.003659092196725 0.001339505588256617 -2.938807456202452e-17)
(1.003564825820483 0.001317210477441596 -1.375039033940401e-17)
(1.0034663282722 0.00129175697092241 4.153453574094173e-18)
(1.003363664933701 0.001262750584847316 4.197070169504925e-17)
(1.003257597561784 0.00122958131850015 4.468740640436493e-17)
(1.003147457702248 0.001191720343956965 2.128494845693166e-16)
(1.003033496759387 0.001148536858758059 2.504284971882244e-16)
(1.002917063357953 0.001098968988856745 3.173795297443272e-16)
(1.002799110311446 0.001042828711012737 4.060764743969546e-16)
(1.002690397622349 0.0009787865737792326 4.60804741365706e-16)
(1.002591200044188 0.0009069548775213027 5.207465025750142e-16)
(1.002489298414443 0.0008257760000212986 4.833766564370857e-16)
(1.002392022394324 0.0007317245198546609 4.627723053062731e-16)
(1.002305778261808 0.000624577295022204 4.150815447943192e-16)
(1.002231506761171 0.0005062722034400041 3.400766551478302e-16)
(1.002158280376872 0.000376889071188949 3.339566181020012e-16)
(1.002084760998813 0.0002325110462061717 2.10735323845336e-16)
(1.002045296970352 7.245729409308832e-05 2.178971871879098e-16)
(1.002062748888501 -0.0001006751621271731 1.394811772972393e-16)
(1.001975823346413 -0.0002833835618104713 1.555541261396429e-16)
(1.001987788431695 -0.0004904412815116366 1.576587466403802e-16)
(1.002418132513936 -0.0007488256369140069 1.430547971258057e-16)
(1.002663811840082 -0.0009095120343508876 1.290631174868549e-16)
(1.001843600066986 -0.001164522468435326 7.484744470478044e-17)
(1.000257653222495 -0.001279720788887175 2.481862211275821e-17)
(0.9985638336694236 0.005043622716855012 3.16790071766036e-18)
(0.9935937998442492 -0.01928321362395683 4.030819716264173e-18)
(0.008327237459898195 1.976519842196995e-08 4.263336985577722e-20)
(0.02504113572509345 8.541237956026639e-08 1.226477411221449e-19)
(0.04193497329883035 1.8288888294011e-07 1.740604723668938e-19)
(0.0591297805203662 3.109564472181032e-07 2.285324080482952e-19)
(0.07674593817875461 4.702934827191468e-07 2.952440701464935e-19)
(0.09489970875826279 6.644413403273922e-07 3.427310159397563e-19)
(0.1136965807521682 8.981646447877544e-07 4.203642027752826e-19)
(0.1332215693463232 1.177654957234416e-06 5.295595646572045e-19)
(0.1535286111126661 1.510478767566525e-06 6.518126615012018e-19)
(0.1746326352145494 1.907110195067315e-06 7.443841484489204e-19)
(0.1965065252641077 2.381040987420703e-06 7.927748009883346e-19)
(0.2190817174008018 2.950150203117253e-06 7.771273932939122e-19)
(0.2422497126258388 3.63778052488117e-06 7.481744366007574e-19)
(0.2658646119733378 4.47440131431324e-06 8.066796133120316e-19)
(0.2897530434715589 5.498297647543776e-06 7.942951700000705e-19)
(0.3137283216464423 6.75584551680158e-06 8.726607107415779e-19)
(0.3376072514866375 8.300727559857357e-06 8.677500339511719e-19)
(0.3612261203027384 1.019225288569136e-05 9.733213600584599e-19)
(0.3844499551454252 1.249302816154295e-05 1.072873404586689e-18)
(0.4071720732363327 1.526673003578256e-05 1.184854384154112e-18)
(0.4293036965655762 1.857613594436568e-05 1.42724631447769e-18)
(0.4507691534237234 2.248222066444228e-05 1.734677530616536e-18)
(0.471507498058964 2.704534327641255e-05 1.901561448680683e-18)
(0.4914807206527801 3.232698512269591e-05 2.049533728630943e-18)
(0.5106897342763371 3.839360946873795e-05 2.124526469169065e-18)
(0.5291860374052093 4.531887077571254e-05 2.170865879323519e-18)
(0.5470741094061385 5.318734009388792e-05 2.24246243771766e-18)
(0.564491530561201 6.210228054306225e-05 2.357921873607145e-18)
(0.5815579274534285 7.217899428354865e-05 2.56578667777596e-18)
(0.598352862519414 8.353987224232401e-05 2.550314930940611e-18)
(0.6149343767813557 9.632602496119491e-05 2.77032310399299e-18)
(0.6313503928256224 0.0001106974693358967 2.846928686502012e-18)
(0.647641380670623 0.0001268327942615204 3.098345260687928e-18)
(0.6638409360131259 0.0001449322211447308 3.064079438550966e-18)
(0.6799772509199905 0.0001652214988920316 3.090599452877093e-18)
(0.6960747147419138 0.0001879564275505126 2.95139934255722e-18)
(0.7121543404298818 0.0002134242396705899 2.847123564160218e-18)
(0.7282348357668549 0.0002419485873659137 2.411207612110979e-18)
(0.7443333678388185 0.0002738997406338584 1.565803421171496e-18)
(0.7604662265348647 0.0003096691594148555 7.756987692134268e-19)
(0.7766693167758258 0.0003496655793713302 -6.609601346648806e-20)
(0.7930099318696224 0.0003943190091411395 -9.908968111013238e-19)
(0.8095514734415543 0.0004439743473576354 -2.072586736475063e-18)
(0.8263355582181293 0.0004988751507410292 -3.19783461053285e-18)
(0.8433893193287644 0.0005592242060660775 -3.434460463941639e-18)
(0.860694777356544 0.0006252892566861538 -4.112878761895401e-18)
(0.8780992215877211 0.0006969034159629301 -4.893835066395091e-18)
(0.8953349015074484 0.0007737189043582784 -7.82831724101652e-18)
(0.9120651914201986 0.0008546179025374408 -1.002214654268633e-17)
(0.9280888112583565 0.000938272175841937 -1.111260997652264e-17)
(0.9433283334127028 0.001023441494790323 -1.085353543372035e-17)
(0.9576133428649219 0.001108482699928359 -8.533055923935842e-18)
(0.9706294556546388 0.001188480752911575 -1.118961183344229e-17)
(0.9820175786831639 0.00126287198689063 -1.338932760061641e-17)
(0.9914285248818842 0.001327455792675366 -1.611315443503255e-17)
(0.9985515194477731 0.001373677244949482 -2.25440906675115e-17)
(1.00320170953541 0.001427917049429857 -2.182446429888354e-17)
(1.005537308429322 0.001450606624895631 -1.987058615729438e-17)
(1.006268352141826 0.001447888932981191 -2.337045659024403e-18)
(1.006175945266592 0.001433503908006762 1.226121951744056e-17)
(1.005758591555177 0.00144374015796508 5.482821977226215e-17)
(1.005593549566897 0.001445942553419082 1.79108515180424e-17)
(1.005640200248284 0.001432744790352056 1.713841204512709e-17)
(1.005661464773917 0.001423732937931928 8.052133539327343e-18)
(1.005634593821497 0.001416028132772147 -2.576613313959574e-17)
(1.005605953344222 0.00140918039176414 -7.356475539164566e-17)
(1.005587945276117 0.001400439902708061 -2.893863705917429e-17)
(1.005568766572278 0.001390488780585894 3.071914817924775e-17)
(1.005547457326467 0.001379916578374905 6.885267470820898e-17)
(1.005524533433674 0.001368427880075828 4.51186134016997e-17)
(1.005499829609804 0.001355837438200912 -2.438011757388892e-17)
(1.005473202470576 0.00134209187315241 9.787562802063269e-18)
(1.005444542683967 0.001327123390067138 2.479936325200835e-17)
(1.005413722686197 0.00131082978490983 -5.787703704220261e-17)
(1.005380611176913 0.001293104406505309 6.250853680542965e-17)
(1.005345072952605 0.001273838222342 -1.786582925846928e-17)
(1.005306973032699 0.001252909932718872 1.110795283158098e-17)
(1.005266183608241 0.001230192785471 -9.024168227703453e-18)
(1.005222570051641 0.001205547992009012 4.401631192988414e-17)
(1.005176051520238 0.001178816740913807 -5.239646983634913e-17)
(1.005126431601265 0.001149839954560675 4.089958621664698e-17)
(1.00507352307466 0.001118441263763277 -4.351266718301688e-17)
(1.00501720466705 0.001084433317792918 -1.279185469493834e-17)
(1.004957398618802 0.001047573437567751 -3.485897236817548e-17)
(1.004894180854808 0.001007623360735548 -1.655632458329008e-17)
(1.004827094269588 0.0009644044873833022 2.921251529588547e-17)
(1.004757064353237 0.0009174913149638526 1.492212361208897e-16)
(1.00468441092656 0.0008666495580593377 1.362327978434819e-16)
(1.004608547450438 0.0008113690061970522 1.462790416866309e-16)
(1.004529341215377 0.0007510816612591447 2.712231400333275e-16)
(1.004446739141734 0.000685823735339261 2.517716230066455e-16)
(1.004361698830994 0.0006158709224443155 2.150737480501328e-16)
(1.004276573800142 0.0005405706451651513 1.710551640989875e-16)
(1.00419367924764 0.0004578474264864273 1.093922796574295e-16)
(1.004109018986129 0.0003674043379385949 5.644718711562819e-17)
(1.004007569539666 0.0002715079264340661 -2.476923196157373e-17)
(1.00394024991224 0.00016710796827816 5.179779914115182e-17)
(1.00392575735681 5.088421936116249e-05 -1.475843065957675e-16)
(1.003847482533951 -7.166554587773111e-05 1.336204915172782e-17)
(1.003635470251091 -0.0001977879134826533 3.637876153656643e-17)
(1.003949387777185 -0.0003793508616235912 1.664156304884043e-16)
(1.004112405723028 -0.0005415225568884794 2.153110112100448e-16)
(1.00360489283138 -0.0006143767793022484 1.387362450950913e-16)
(1.002563016824061 -0.0006003427882253854 8.661056036631737e-17)
(1.001031032320372 -0.0005113251139414042 4.739345878525173e-17)
(0.999034076461298 -0.0003666796648254764 1.883901258698787e-17)
(0.9970680629835951 0.00158268993913367 1.057237277165532e-17)
(0.99268796502693 -0.006743054907593228 1.685072094118512e-17)
(0.00798673446940971 6.447975703509169e-09 2.106455145437883e-19)
(0.02401711540051682 5.59114549677803e-08 5.773129621312043e-19)
(0.04021998826263071 1.51818224851936e-07 9.282287991429333e-19)
(0.05671142629283026 2.952055026420512e-07 1.243344956836929e-18)
(0.07360690605362939 4.890673635831039e-07 1.592184343940086e-18)
(0.0910180094772999 7.39802242532751e-07 2.004400056077486e-18)
(0.1090459919886802 1.054953483288657e-06 2.396001067202623e-18)
(0.1277721425596551 1.443595023741922e-06 2.777038789400772e-18)
(0.147246733873624 1.916058944000052e-06 3.144036774977389e-18)
(0.1674800994378242 2.484465183950088e-06 3.568134850681018e-18)
(0.1884387506809177 3.162476693785633e-06 3.970903380978488e-18)
(0.2100464183570121 3.965441560272927e-06 4.382361893080849e-18)
(0.2321879282372365 4.910524102452899e-06 4.848024026726611e-18)
(0.2547153005287309 6.01660750170427e-06 5.393230071547465e-18)
(0.2774591345739883 7.304068888496535e-06 5.848956821564449e-18)
(0.3002426441294779 8.79418163281115e-06 6.228078497917141e-18)
(0.3228970617265139 1.050904421838857e-05 6.665902699182734e-18)
(0.3452765218231936 1.247146942099044e-05 7.0865613209394e-18)
(0.3672647010064489 1.470573402912158e-05 7.411591166620664e-18)
(0.3887739228306669 1.7237831473991e-05 7.831082386918957e-18)
(0.409738497474501 2.009602450950495e-05 8.258967005860706e-18)
(0.4301072338489676 2.331091560733782e-05 8.561681223084742e-18)
(0.4498377359982382 2.691532387583712e-05 8.937588274972579e-18)
(0.468897543419583 3.094412178825947e-05 9.369303229534646e-18)
(0.487277584250383 3.543582553476783e-05 9.66883114803949e-18)
(0.5050084090150254 4.043390211738621e-05 9.968064163371219e-18)
(0.5221703786670258 4.599065658669476e-05 1.020409720363621e-17)
(0.5388819439005866 5.217181069510486e-05 1.042981376621615e-17)
(0.5552548977310784 5.905184501109445e-05 1.048016454171502e-17)
(0.5713635241573987 6.670830532163843e-05 1.067894718376825e-17)
(0.5872574725159947 7.522626102734624e-05 1.074404220865962e-17)
(0.6029772850174607 8.470397973835395e-05 1.09987511274434e-17)
(0.6185567823687256 9.525169259239264e-05 1.076433456282694e-17)
(0.6340246656423637 0.0001069928258569919 1.077745255610751e-17)
(0.6494057922615247 0.000120066418143099 1.074590805052214e-17)
(0.6647222087165343 0.0001346284176735661 1.045443208364656e-17)
(0.6799940011711958 0.0001508545044901607 1.02528257382662e-17)
(0.6952396160546573 0.0001689417096046538 9.800417170679101e-18)
(0.710476234464878 0.0001891104811429234 9.440325170232833e-18)
(0.725720666263668 0.0002116072152637493 8.619467820152469e-18)
(0.7409890464893256 0.0002367153028969276 7.818399434767931e-18)
(0.7562968342715523 0.0002647692824301553 7.022220919100109e-18)
(0.7716598566859819 0.0002961760705873263 6.16702642928331e-18)
(0.787094525998662 0.000331434621598899 4.801262245608247e-18)
(0.8026173229472425 0.0003710677657245788 3.935892094119706e-18)
(0.8182903267008526 0.0004157195220375589 3.645061673142225e-18)
(0.8342057299205538 0.00046613196872542 3.433047508353414e-18)
(0.8504100879639673 0.000522869392392072 3.425408147612706e-18)
(0.8669003505122413 0.0005862422976843099 3.703470063167369e-18)
(0.88362616675287 0.0006563136786213649 1.517355922665777e-18)
(0.9004562810234308 0.0007329535133563978 6.530062969933431e-19)
(0.9170832598892422 0.0008153114074967809 -6.974578016125571e-19)
(0.9331344049952872 0.0009017155120475572 -8.303009598049217e-19)
(0.9484712163162878 0.0009906168081971964 -2.98880854021326e-18)
(0.9629240901819789 0.001079896523525779 -4.735593637720323e-18)
(0.9760611167262352 0.001164851400036199 -6.261961883905858e-18)
(0.9873391351158327 0.00124349615761873 -8.350970699457232e-18)
(0.9962034432193546 0.00130758270283404 -2.018973802795893e-18)
(1.00229248674516 0.001351997150578254 9.540349702189381e-18)
(1.005552880908836 0.001382388406710671 2.991064021619549e-17)
(1.00669163560256 0.001392783369031913 5.360630435411929e-17)
(1.006866792655339 0.001382387328600839 6.223924353886248e-17)
(1.006605086927648 0.001387796926794632 2.102174021081472e-17)
(1.006531105497763 0.001376475139025939 -3.749871145902846e-18)
(1.006524253313579 0.001370131364637015 -4.941131045417466e-17)
(1.006503813486081 0.001363574521369651 -6.689771331969104e-17)
(1.006481534828004 0.001355615805678577 -4.868445481453463e-17)
(1.006460258994187 0.001346945668297302 -8.43516877171546e-18)
(1.006438054731812 0.001337677415371003 9.223682813765937e-17)
(1.006414257541208 0.001327514865936991 6.279335156753129e-17)
(1.00638861994123 0.001316366144739132 -1.400043428070965e-17)
(1.006361033879209 0.001304196161633047 5.055874657499023e-17)
(1.006331394770002 0.001290909304839221 3.691642204526381e-17)
(1.006299582153576 0.001276393084837904 -6.127799787747334e-17)
(1.006265477437613 0.001260535974645889 1.648742480639567e-17)
(1.006228965062402 0.001243218407570386 8.911211403606353e-19)
(1.00618992981906 0.001224305927786431 5.601185668884668e-17)
(1.006148255259193 0.001203654551375821 5.442397124357487e-17)
(1.006103838787803 0.001181109880059585 1.165955743727811e-16)
(1.006056545371365 0.001156496011945704 -3.379665933689259e-17)
(1.006006391461108 0.001129630634734813 3.113733534938935e-17)
(1.005953382867427 0.001100313877349373 -8.496907996165076e-17)
(1.005897501518197 0.001068350032778441 -1.293684792712749e-17)
(1.005838738890942 0.001033502495623504 -9.103600412072001e-17)
(1.005777026631131 0.000995513813270854 -1.466298249587508e-16)
(1.005712860944526 0.0009541964154341514 -6.694285170966238e-17)
(1.005645493116148 0.0009092019784350271 -8.766835399286861e-17)
(1.005575023407604 0.0008602784517754628 -1.223915475854544e-16)
(1.005502465275999 0.0008070184392024169 -9.792250776568076e-17)
(1.005428616701558 0.000748922849565186 -1.349358116795734e-16)
(1.005354361632221 0.0006858336057668194 -1.929388419338039e-16)
(1.005279249012575 0.0006176993212038229 -2.814198427077961e-16)
(1.005201676781941 0.0005442673419108704 -3.706653875108718e-16)
(1.005122098815148 0.0004640427521948865 -4.901679954085073e-16)
(1.005050541979486 0.000376526543980417 -5.008923452672478e-16)
(1.005006206613245 0.0002818692928396107 -6.314542961130697e-16)
(1.004946111325238 0.0001807165100452822 -4.099005641455232e-16)
(1.004859413924703 7.611071416301956e-05 -5.61789641731289e-16)
(1.004860190804524 -5.78019203467571e-05 -2.648664319009378e-16)
(1.00505376169163 -0.0002061356335659574 -1.208438837660248e-16)
(1.004833779051781 -0.0002985859020364668 3.566536153393094e-17)
(1.004172109393651 -0.0003285008310125422 8.699901824177771e-17)
(1.003185866954051 -0.0002657032018672167 6.604207638706592e-17)
(1.00186023750498 -0.0001536873633214555 3.861471737573988e-17)
(1.000294139459563 -6.07715480510977e-05 1.872821530337002e-17)
(0.9985424968533479 3.38832685337824e-05 1.022381022626068e-17)
(0.9966088529678644 0.001307910653291557 8.265975526129208e-18)
(0.992902575322731 -0.004781688377012473 3.099387374555403e-18)
(0.007584985126146301 -3.099736757549814e-09 1.116486279305525e-19)
(0.02280889605460668 2.910016165875228e-08 3.357586258407294e-19)
(0.03819652695198756 1.098782432766642e-07 5.622915381311996e-19)
(0.05385821526476862 2.433097531442704e-07 7.928520764978284e-19)
(0.06990405867441145 4.328359291279705e-07 1.029015400873907e-18)
(0.08644127543497657 6.843892888702802e-07 1.272276911242001e-18)
(0.1035688686614012 1.005654172863405e-06 1.523957318174723e-18)
(0.1213693260619568 1.405522413618728e-06 1.78508145201619e-18)
(0.1398985685410132 1.894298164282202e-06 2.056237937166947e-18)
(0.1591770471574913 2.483412902933263e-06 2.337488390696585e-18)
(0.179184920847224 3.185192120794056e-06 2.628347684263053e-18)
(0.1998619674983292 4.012275195616851e-06 2.927905020010909e-18)
(0.2211107214329378 4.977348001732802e-06 3.234967546769254e-18)
(0.2428020230026 6.092566574810267e-06 3.548158842890933e-18)
(0.2647857963204785 7.369141278090258e-06 3.866038463658401e-18)
(0.2869029410286892 8.817017372633851e-06 4.18705729703213e-18)
(0.3089949740164759 1.044472690607623e-05 4.509405083718604e-18)
(0.3309165562772352 1.226011047527009e-05 4.925517322515407e-18)
(0.3525418221519279 1.427136984807522e-05 5.338331037279014e-18)
(0.3737629630615997 1.648815256102229e-05 5.746753537790842e-18)
(0.3944910603969083 1.892276309951072e-05 6.152212917976497e-18)