/*--------------------------------*- C++ -*----------------------------------*\
| =========                 |                                                 |
| \\      /  F ield         | OpenFOAM: The Open Source CFD Toolbox           |
|  \\    /   O peration     | Version:  v1812                                 |
|   \\  /    A nd           | Web:      www.OpenFOAM.com                      |
|    \\/     M anipulation  |                                                 |
\*---------------------------------------------------------------------------*/
FoamFile
{
    version     2.0;
    format      ascii;
    class       volScalarField;
    location    "1000";
    object      k;
}
// * * * * * * * * * * * * * * * * * * * * * * * * * * * * * * * * * * * * * //

dimensions      [0 2 -2 0 0 0 0];


internalField   nonuniform List<scalar> 
10965
(
0.02778306706232685
0.01641346987890309
0.007157278736851001
0.003029707201242443
0.001660029672614687
0.001031482123251707
0.0006330366435612015
0.0003678403189404881
0.0001962028894886246
9.293434329365806e-05
3.855407121001542e-05
1.396958580259648e-05
4.407440098855739e-06
1.212197554624673e-06
3.0861711792867e-07
1.532636882620408e-07
5.271220265110468e-07
3.412985646980775e-06
2.757288626843721e-05
0.0002579661569382041
0.00199795241314008
0.009771305626877272
0.0318568599487298
0.0825774290470157
0.1972654661034545
0.5241020752888861
0.05068480311735347
0.04837319521162319
0.04385411301038553
0.03696718132154636
0.02755614021540376
0.01628500876921483
0.007115594581984116
0.003009725803604969
0.001647449820540232
0.001023689005780049
0.0006283566732894444
0.0003651778647311154
0.0001948083341148283
9.228689267918383e-05
3.829321142532657e-05
1.387919181401278e-05
4.380695282820422e-06
1.205557574969661e-06
3.076160380126359e-07
1.552630526216426e-07
5.401485808933869e-07
3.503271782220095e-06
2.828872645096125e-05
0.0002629029202196898
0.002020467742352094
0.009834566079098125
0.03198349604656243
0.08280729343556763
0.1976659556971802
0.5247302525815565
0.05120256032740066
0.05066577771162233
0.04825958034887111
0.04365589664377396
0.03671203442904793
0.02731858805329104
0.01614807355841205
0.007070082619156356
0.002988837828703622
0.001634551168881208
0.001015709530972258
0.0006235628872030102
0.0003624480154492798
0.0001933764399737277
9.162157789729567e-05
3.802510356239499e-05
1.378627103207463e-05
4.353193573368536e-06
1.198728949475148e-06
3.066007574716779e-07
1.574007940511806e-07
5.540399428854153e-07
3.599489880111457e-06
2.904560877135652e-05
0.0002680607393406759
0.002043698669026494
0.009899272408962323
0.03211249378620204
0.08304212454155865
0.1980732932164048
0.5253642554958772
0.05048230651935508
0.05126480410556291
0.05063872211313369
0.04813927018676835
0.04345143609583994
0.03645459732569355
0.02707965812165285
0.01600949140996491
0.007023595174774919
0.002967897664698196
0.001621686503045082
0.001007745891448347
0.0006187770986588888
0.0003597222152937602
0.0001919461680245426
9.095692314234512e-05
3.775726163488194e-05
1.369342959148504e-05
4.325707121595067e-06
1.191904216481058e-06
3.056004041159233e-07
1.596169607371057e-07
5.683959066934656e-07
3.698760974540504e-06
2.982048859832668e-05
0.0002733006137479689
0.002067184779718223
0.009964512662187824
0.03224244469619681
0.08328192349294619
0.1984844469268716
0.52600441649706
0.0490073057378843
0.05060939126101383
0.05131873553865725
0.05060429101092767
0.04801297005763668
0.04324350489036492
0.03619609607246372
0.02684057421902964
0.01587005178810348
0.006976405667805991
0.002946948930878696
0.001608858286399694
0.0009997958982993417
0.0006139971679787142
0.0003569988758323809
0.0001905165347476006
9.029241108520393e-05
3.748945894635592e-05
1.360058690424576e-05
4.298212634922651e-06
1.185078029670037e-06
3.046148484448602e-07
1.619162020613692e-07
5.832427171208725e-07
3.801226948766727e-06
3.061406733055779e-05
0.0002786244323075171
0.002090916781630306
0.0100302066299326
0.03237293158170587
0.08352582793845655
0.1988985868794064
0.5266501539400658
0.04720384145946608
0.04917568139737313
0.05072787197139798
0.05136439637518761
0.05056264300946128
0.04788081999771941
0.04303168555867282
0.0359361409067166
0.02660103654578478
0.01572961107952044
0.006928474411998987
0.00292596368117553
0.001596050652680471
0.0009918502346028704
0.0006092176817693281
0.0003542750038211573
0.0001890860423091313
8.962738251231726e-05
3.722144312700105e-05
1.350766004009754e-05
4.270687019023342e-06
1.178245175976221e-06
3.036440563416008e-07
1.643034902219078e-07
5.986081873880019e-07
3.907037525970429e-06
3.142710318902024e-05
0.0002840354481147523
0.002114903869801498
0.01009637057391657
0.03250411007478633
0.08377402492999469
0.1993156549981092
0.5273009456010774
0.04532450483234129
0.04739149573640997
0.04933610412298484
0.05083793066388559
0.05140191709674872
0.05051363558850395
0.0477426872317501
0.04281558817649469
0.03567379364413923
0.02636069434023667
0.0155880047437933
0.006879754833820892
0.002904913325617132
0.001583247958240951
0.0009838997729402143
0.0006044333671790531
0.0003515476985844038
0.0001876532413186977
8.896119979579535e-05
3.695297016717407e-05
1.341456881665574e-05
4.24310793969906e-06
1.171400631760801e-06
3.026880980975362e-07
1.667841284966964e-07
6.145217014745088e-07
4.016349594761184e-06
3.226037947072705e-05
0.0002895369500897107
0.002139155086958208
0.01016301947814798
0.03263582859135118
0.08402668048089507
0.1997358985743596
0.5279563739331734
1.728529394591541e-08
4.706900212999064e-07
3.07648404548993e-06
1.079134310472287e-05
2.755825767863727e-05
5.837142324189004e-05
0.0001093404968260465
0.0001874640669723196
0.0002997688763821913
0.0004515785671957262
0.0006442806005705182
0.0008739229479554612
0.001132083191673699
0.001408783711909299
0.00169545601317134
0.001986333036405307
0.002278306068859905
0.04552001164773415
0.04757223984465403
0.04948881289502884
0.05093978691456281
0.05143132396458963
0.05045718967317974
0.0475983643968684
0.04259491345178849
0.03540808050371243
0.02611887261289447
0.01544512112419947
0.006830206236835543
0.002883770979282762
0.001570435306348395
0.0009759357454223446
0.0005996391216613101
0.000348814139738413
0.0001862167186497757
8.829324036720626e-05
3.668380179608091e-05
1.332123494972397e-05
4.215453592186514e-06
1.16453951165358e-06
3.017471422977201e-07
1.693637683646941e-07
6.310142878134962e-07
4.129327384544919e-06
3.311470424418631e-05
0.0002951322578049599
0.002163679302732287
0.01023016735474191
0.03276818476745101
0.08428265793520921
0.2001593001195926
0.5286160401196195
1.745246272761722e-08
4.752397011318547e-07
3.106202295001036e-06
1.089549705980997e-05
2.782391125344044e-05
5.893298972776258e-05
0.0001103888386547192
0.0001892509113654688
0.0003025985367218746
0.0004557787326869377
0.0006501548590209371
0.0008817083973128333
0.001141941982004928
0.001420828328200064
0.001709777590975094
0.002003008968328478
0.002297387727722961
0.002591625571574485
0.0457094785805786
0.0477462459287778
0.04963395467031399
0.05103352950548718
0.05145253294052662
0.05039309628084476
0.04744750893445949
0.04236882337775054
0.03513972109271977
0.02587555579519548
0.01530085685503784
0.006779789612082847
0.002862511029381396
0.001557598437000771
0.0009679496965203122
0.0005948299990402605
0.0003460715830871254
0.0001847750967949835
8.762289696497737e-05
3.641370561790224e-05
1.322758208633424e-05
4.187702707498974e-06
1.157657071343852e-06
3.00821461842689e-07
1.720484336933226e-07
6.481187152389978e-07
4.24614273514322e-06
3.39909105866253e-05
0.0003008247182854093
0.002188485188180432
0.01029782499087859
0.03290126960886515
0.08454209599122706
0.2005859259464617
0.5292795715628564
1.762248206862543e-08
4.798689224709013e-07
3.136454326884322e-06
1.100158437983047e-05
2.809470610574924e-05
5.950601652343061e-05
0.0001114600311512613
0.0001910798491021628
0.0003055007115796301
0.0004600954385821164
0.0006562016602214927
0.0008897249515809412
0.001152074696673413
0.001433150705378722
0.001724321231581782
0.002019781809717622
0.002316379468429962
0.00261280971169344
0.002908852817123581
0.04383815991140889
0.04589303580405377
0.04791364007778548
0.04977160946812315
0.05111916460191582
0.05146540257157362
0.05032128448232387
0.0472894061367503
0.04213731713521667
0.03486847572999913
0.02563055139075858
0.01515509626719277
0.006728463480989592
0.002841108327584911
0.001544723532491083
0.0009599334169623013
0.0005900011941557065
0.0003433173618023981
0.0001833270366394846
8.694957943894192e-05
3.614245584612546e-05
1.313353604451921e-05
4.159834615864296e-06
1.150748723664874e-06
2.999114431143478e-07
1.748445470618257e-07
6.658695929342466e-07
4.366975358325301e-06
3.488985667188761e-05
0.0003066177020049434
0.0022135811854863
0.01036600301746157
0.0330352038312346
0.08480712803878428
0.2010158974435462
0.5299466498935544
1.778467323971105e-08
4.842845221941568e-07
3.165307391455169e-06
1.110275833023101e-05
2.835295987303372e-05
6.005258908748103e-05
0.0001124821841923054
0.0001928264012474954
0.0003082755913927778
0.0004642300688477141
0.0006620063884614972
0.0008974404727978051
0.001161853501733106
0.001445074160872707
0.001738427627113262
0.002036083593650816
0.002334869314207341
0.002633464209873523
0.002931637531585636
0.003229734151751877
0.003528344196599348
0.00382827209633296
0.00413032100439789
0.004435284869179162
0.004743941761730897
0.005057046944156464
0.005375331490854086
0.00569950406697772
0.006030254312832034
0.006368256982972322
0.006714176386983474
0.007068670897696484
0.007432397424190655
0.007806015823488864
0.0081901932737212
0.008585608646558848
0.008992956946947852
0.009412953890223751
0.009846340695283444
0.01029388918467486
0.01075640728036588
0.01123474500483577
0.01172980108626667
0.01224253029712804
0.01277395165186788
0.013325157600819
0.0138973243804432
0.01449172367409973
0.01510973576267565
0.01575286433733713
0.0164227531537678
0.01712120468947892
0.01785020093392389
0.01861192637888296
0.01940879318368289
0.02024346829224148
0.02111890202964862
0.02203835726539512
0.02300543760008127
0.0240241120506442
0.02509873229752897
0.02623403644978189
0.02743513023697721
0.02870743214886484
0.03005656280527412
0.03148814996554668
0.03300750821508634
0.03461913498052825
0.03632594010108284
0.03812809126251963
0.04002130671108845
0.04199434508122904
0.04402383053061426
0.04607075376675019
0.04807453970041296
0.0499019273269058
0.05119666274192203
0.05147009690821035
0.05024141851432485
0.04712439420010656
0.04190039489163542
0.03459379785143256
0.0253836052110454
0.01500771613920408
0.006676184359731154
0.002819538085868854
0.00153179718345319
0.0009518789356590979
0.0005851480405988137
0.0003405488867797436
0.0001818712383048234
8.627271515207622e-05
3.586983348275819e-05
1.303902485860223e-05
4.131829261256516e-06
1.14381004341363e-06
2.990175930720331e-07
1.777589561777412e-07
6.843034686375575e-07
4.492013066062948e-06
3.581242556111512e-05
0.0003125145968955838
0.002238975487620955
0.01043471162504477
0.03316969641368579
0.08507754341879331
0.2014498781198005
0.53061702479458
1.79378047456775e-08
4.884535910459034e-07
3.192550389389384e-06
1.119829171238129e-05
2.859684475541824e-05
6.056888207066122e-05
0.0001134481834522392
0.0001944784090089381
0.0003109037748891267
0.0004681535641096715
0.0006675281381855322
0.0009048006709378025
0.001171209879772762
0.001456515361561695
0.00175199765239258
0.002051797531064677
0.002352720017133228
0.002653427497912257
0.002953679363232636
0.003253818637464289
0.003554474878753345
0.003856404507228799
0.004160408114545819
0.004467289548786535
0.004777836673061005
0.005092813696531828
0.005412959713691951
0.0057389905128599
0.006071602045324489
0.006411474673315297
0.006759277718407473
0.007115674073718157
0.007481324770315871
0.007856893476794413
0.008243050943619816
0.008640479450972917
0.009049877308464706
0.009471963495595089
0.009907482513208271
0.01035720954022112
0.01082195599137674
0.01130257557508021
0.01179997096526961
0.01231510120568511
0.01284898997757824
0.01340273487168177
0.01397751781752
0.01457461683228319
0.015195419260743
0.0158414366847724
0.01651432167256084
0.01721588652890377
0.01794812416805469
0.01871323117716286
0.01951363300232319
0.02035201104359587
0.02123133112518711
0.0221548723878543
0.02312625496569468
0.02414946382190778
0.02522886460920404
0.02636920526547354
0.02757559387401001
0.02885343877890336
0.03020833044045585
0.0316458353949653
0.03317115984023022
0.03478862248764246
0.03650085138738919
0.03830758418128034
0.04020390128447838
0.04217764126238635
0.04420422431157837
0.04624268886853747
0.04822905365468524
0.05002491243560121
0.05126609979753328
0.05146646813096133
0.05015369859784807
0.04695233572117617
0.04165777967206427
0.03431480390174846
0.02513427017640011
0.01485857901030686
0.006622908700371659
0.002797776075879864
0.001518806432385178
0.0009437785372646655
0.0005802660149289896
0.0003377636467176678
0.0001804064404778894
8.559174860262878e-05
3.559562612743075e-05
1.294397872471545e-05
4.103667184313611e-06
1.136836765156133e-06
2.981405452851195e-07
1.807989611254747e-07
7.034589273815265e-07
4.621451976622263e-06
3.675952477966297e-05
0.0003185188011972758
0.002264675997594963
0.01050395798293362
0.03330483912777439
0.0853513003794709
0.20188868678341
0.5312905341117922
1.808748065917703e-08
4.925287066143031e-07
3.219180551262599e-06
1.129168383416295e-05
2.883530539637755e-05
6.107386813459331e-05
0.0001143936165370035
0.0001960968912062278
0.0003134825291947076
0.0004720112017390996
0.0006729710101123032
0.0009120764222044597
0.001180485798258814
0.001467888668018885
0.001765517403014258
0.002067479344930511
0.002370553049804317
0.002673380306284557
0.002975707339615684
0.00327787170741001
0.003580503605424668
0.003884364169010793
0.004190261168212877
0.004499006500985583
0.00481139606717687
0.005128201667842196
0.005450169356657899
0.005778021207280134
0.006112458815103802
0.006454167610933986
0.006803821489260722
0.007162087500719958
0.007529630497988837
0.007907117702939939
0.008295223223570921
0.008694632556612085
0.009106047152429426
0.00953018910557398
0.009967806064994582
0.01041967644505183
0.01088661503897458
0.01136947913549002
0.01186917525311127
0.01238666660806701
0.01292298145305643
0.01347922242327001
0.01405657704466147
0.01465632956580007
0.01527987428922889
0.01592873056611228
0.01660455963939434
0.01730918347875092
0.01804460573099309
0.01881303482899713
0.01961690920250811
0.02045892431919615
0.02134206100852426
0.02226961405228169
0.02324521932035973
0.02427287669582135
0.02535696449989998
0.02650223882735896
0.02771380797429834
0.02899706737876152
0.03035757380152411
0.03180082800934626
0.03333192198215253
0.03495498832889384
0.03667236402935245
0.03848334492892627
0.04038235627066952
0.04235627024881413
0.04437923861313674
0.04640876469789965
0.04837732443640421
0.05014058970693022
0.05132739214450088
0.05145432465634422
0.05005764431169125
0.0467728552352291
0.04140887556452717
0.03403123264789777
0.02488222079008941
0.01470758265084241
0.006568593496903035
0.002775798708718922
0.001505738796910127
0.0009356247708373151
0.0005753507400825455
0.0003349592078165535
0.0001789314202582708
8.490614123078976e-05
3.531962788936375e-05
1.284832995844131e-05
4.075329513543315e-06
1.129824782893206e-06
2.972810668175481e-07
1.839723434361117e-07
7.233766938363911e-07
4.755496711199429e-06
3.773208577665243e-05
0.0003246337154549412
0.002290690302902802
0.01057375014595704
0.03344077148231109
0.08563051947068955
0.2023265658999628
0.5319673744449159
1.823176866440473e-08
4.964570366856675e-07
3.244851058200594e-06
1.138171185367861e-05
2.906519987808895e-05
6.15608456308344e-05
0.0001153058408678064
0.0001976600535808874
0.0003159769573750024
0.000475750699639857
0.0006782614307956522
0.0009191699961674855
0.00118955778444675
0.001479044377834216
0.001778811373720569
0.002082929180886818
0.002388147109807577
0.002693084858218396
0.002997475075285091
0.003301650075376163
0.003606241288882111
0.003912015209862471
0.004219787087675975
0.0045303770419142
0.004844589120234169
0.005163202777231379
0.005486971056250869
0.005816622323470115
0.006152863808321101
0.006496385989718887
0.00684786730693715
0.007207978934206765
0.007577389505140818
0.007956769753863486
0.008346797095601528
0.008748160194788735
0.009161563584123433
0.009587732414992214
0.01002741741832619
0.0104814001736371
0.01095049877528458
0.01143557401003631
0.01193753614924152
0.01245735248434467
0.01299605573169913
0.0135547534539722
0.01413463864506784
0.01473700164580933
0.01536324355925738
0.0160148913370137
0.01669361470516972
0.01740124508407909
0.01813979660506297
0.01891148926636983
0.01971877414256515
0.02056436036365297
0.02145124327102797
0.02238273266510434
0.02336247936514839
0.02439449717954532
0.02548317580730127
0.02663327784963124
0.02784990968659767
0.02913845111403875
0.03050442167769914
0.03195325187042939
0.0334899137213883
0.03511834643204505
0.03684058650490176
0.0386554749921592
0.04055675948282061
0.0425302558779722
0.04454877703725585
0.04656877399318543
0.04851937059349952
0.05024886146709474
0.05138037060679165
0.05143336617945127
0.04995294203900741
0.04658527062384756
0.04115291726528628
0.03374312053285058
0.02462732732451219
0.01455462100220779
0.006513195712932102
0.002753583003396552
0.001492582265930571
0.0009274104510157806
0.0005703979856300526
0.0003321332148324733
0.0001774449936092705
8.421537169373459e-05
3.504163946271313e-05
1.275201302463224e-05
4.04679797049054e-06
1.122770153214096e-06
2.964400664096795e-07
1.872873972000265e-07
7.440997376342895e-07
4.894360575038608e-06
3.873106321604373e-05
0.0003308627335136479
0.002317025643043411
0.0106440938412371
0.03357720808793529
0.08591579258725655
0.2027629895580304
0.5326460227363359
1.837082035687536e-08
5.002427927674441e-07
3.269589961683229e-06
1.146847626567297e-05
2.92867912289008e-05
6.203039028540354e-05
0.0001161859837521878
0.0001991699446986667
0.0003183905779079824
0.0004793777918826752
0.0006834082206642084
0.0009260941182975657
0.001198443028376861
0.001490004373427047
0.001791906120829906
0.002098178166361069
0.002405537828325527
0.002712581301755049
0.003019027302860115
0.003325203112756755
0.00363174179907993
0.003939415610386395
0.00424904759391322
0.004561466322511146
0.004877484148703182
0.00519788828433853
0.005523438823881127
0.005854870459267702
0.006192896067963241
0.006538211176043432
0.006891498754943452
0.007253434083058827
0.007624689546754102
0.008005939358866464
0.008397864203710843
0.008801155867090677
0.00921652191593168
0.009644690500235274
0.01008641537306933
0.01054248120892926
0.01101370932981262
0.01150096393643712
0.01200515896345209
0.01252726567622471
0.01306832114650235
0.01362943774208211
0.01421181379260269
0.01481674558289838
0.01544564085246648
0.01610003396693703
0.01678160292839297
0.01749218836715674
0.01823381462259116
0.01900871293321629
0.01981934663466397
0.02066843805896035
0.02155899649427831
0.02249434607666304
0.02347815172315866
0.02451444009861466
0.02560761094294838
0.0267624316588585
0.02798400453948971
0.02927769095571649
0.03064896967330438
0.03210319634226147
0.03364521721666958
0.03527877071475724
0.03700558375018188
0.0388240321026008
0.04072717765694234
0.04269962425168447
0.04471298464006514
0.04672277001839138
0.04865492922007036
0.05034951837855524
0.05142480322917519
0.05140343902443428
0.04983911702807968
0.04638915927651973
0.04088996223854842
0.03345021476392394
0.02436942860854357
0.01439958753943962
0.00645667236187355
0.002731106579506571
0.001479325297573025
0.0009191286619647211
0.0005654036706237353
0.0003292833925059862
0.0001759460164193724
8.351893630863896e-05
3.47614683016468e-05
1.265496457923605e-05
4.018054883798748e-06
1.115669100583746e-06
2.956186035511021e-07
1.907529617054991e-07
7.656733800448892e-07
5.038265711169321e-06
3.975743402028578e-05
0.000337209232482492
0.00234368884962237
0.01071498506318785
0.03371425321231556
0.08620517002882677
0.2032021088580621
0.5333265913214941
1.850469772528782e-08
5.038876597151774e-07
3.293408271804062e-06
1.155201566446521e-05
2.950017819344996e-05
6.248271293282832e-05
0.0001170344495401178
0.0002006272941886825
0.0003207246657404958
0.0004828946549477161
0.0006884149634337582
0.0009328543522885367
0.00120714956107134
0.001500779429149564
0.00180481522435495
0.002113242617176293
0.002422744147565005
0.002731891103412956
0.003040387933098911
0.003348557109902355
0.003657033750380943
0.003966596261384266
0.004278075813102544
0.004592309669500244
0.004910118653428216
0.005232297840647968
0.005559614445565849
0.005892809524726447
0.006232601622021857
0.00657969131312345
0.006934766094183494
0.007298505328771221
0.00767158513307017
0.008054683164646231
0.008448483338768404
0.008853680519029856
0.009270985253813093
0.009701128635565158
0.01014486737243642
0.01060298916241637
0.01107631847326919
0.01156572282918966
0.01207211972703014
0.01259648429520166
0.01313985783395335
0.01370335737989238
0.01428818644128611
0.01489564707556067
0.01552715346498387
0.01618424717284126
0.01686861423032065
0.01758210420134446
0.01832675131515172
0.01910479768217554
0.01991871847230009
0.02077124871133658
0.02166541103068646
0.02260454316372427
0.02359232321900942
0.02463278959090711
0.02573035063981243
0.02688977676731868
0.02811616387164289
0.02941485194137281
0.03079127513912477
0.03225070936496055
0.03379786885989539
0.03543628380199368
0.03716736455149084
0.03898902475307329
0.04089370049433078
0.04286431738696932
0.04487187665944548
0.0468707679895683
0.04878376872160336
0.05044231366385852
0.05146042120195593
0.05136422617598418
0.04971602062027711
0.04618420884132746
0.04061992516659624
0.03315215484986028
0.02410819777210729
0.01424237049600477
0.006398981243829509
0.002708347705614547
0.001465956831811582
0.0009107727643004077
0.0005603638680150368
0.0003264075479855598
0.0001744333857387005
8.281634961207589e-05
3.447892880514876e-05
1.255712353368236e-05
3.989083203929677e-06
1.108518022932252e-06
2.948178982090327e-07
1.943784557224324e-07
7.881454008117637e-07
5.187443221399099e-06
4.081219617194651e-05
0.0003436765607157184
0.002370686281767186
0.01078642032950818
0.03385201140853275
0.08649902791828111
0.2036431714526156
0.5340093700098095
1.863353826361844e-08
5.073953819115785e-07
3.316330455518525e-06
1.163241591139603e-05
2.970558110339077e-05
6.291828628490458e-05
0.0001178521468566261
0.0002020337299370792
0.0003229819954505074
0.0004863058085419741
0.0006932886476571787
0.0009394608425738151
0.001215691118948856
0.001511386949039112
0.001817559527167938
0.002128146436842206
0.00243979264208111
0.002751043180224579
0.003061587971936549
0.003371744970946116
0.003682151800591509
0.00399359346149855
0.004306909594041528
0.004622946407888328
0.004942533371621927
0.005266473544142438
0.005595541333642881
0.005930484206376469
0.006272026394684087
0.006620873531413467
0.006977717631318939
0.007343242127524309
0.007718126841686688
0.008103052845600542
0.008498707247000107
0.008905787941927461
0.009325008407911031
0.009757102621350858
0.0102028301780187
0.01066298172449867
0.01113838478872148
0.01162991012540241
0.01213847868697598
0.01266506934665209
0.0132107275034257
0.01377657471274157
0.01436381949970777
0.01497376950652532
0.01560784515134008
0.01626759495911443
0.01695471272302424
0.01767105663362921
0.01841867045851605
0.01919980677132788
0.02001695209334094
0.02087285357899773
0.0217705465196333
0.02271338142225927
0.02370504857710098
0.02474959685709193
0.02585144167074117
0.02701535443245906
0.02824642210065629
0.02954995998095238
0.03093135333601152
0.03239579262529898
0.03394785245818206
0.03559084415330123
0.0373258448287225
0.03915026938377793
0.04105579540714491
0.04302416073528875
0.0450253691934244
0.04701269838998344
0.04890567853365788
0.05052698893450851
0.05148693222933384
0.05131540445261303
0.04958328981002073
0.04597017857197975
0.04034249844927792
0.03284921467724482
0.0238435815399333
0.01408288364166142
0.006340081471851378
0.002685285367436969
0.001452466307578128
0.0009023364069561004
0.0005552748095578468
0.0003235035739048916
0.0001729060411610517
8.210714499826352e-05
3.419384251827391e-05
1.245843111589001e-05
3.959866522003205e-06
1.10131349845712e-06
2.94039341279062e-07
1.981739132236003e-07
8.115661441413915e-07
5.3421332457563e-06
4.189636720139389e-05
0.0003502680251515789
0.002398023796401005
0.010858392710233
0.03399076898927746
0.0867978229507166
0.2040849403815949
0.5346950641466482
1.875730170101956e-08
5.107648572724058e-07
3.338349277005491e-06
1.170965167589599e-05
2.990293602052715e-05
6.333698003150876e-05
0.0001186388536253963
0.0002033889432150967
0.0003251622653835401
0.0004896112211087366
0.0006980299806658071
0.0009459156259465063
0.001224071585106655
0.001521832933417451
0.001830147155457892
0.002142899724558947
0.002456695188644798
0.002770051018526918
0.003082642386864948
0.003394783055213635
0.003707113634756883
0.004020426169874199
0.004335569129407891
0.004653397928666218
0.004974750863973092
0.005300439097366167
0.005631244309961593
0.005967920423736511
0.006311197384767259
0.006661785890118071
0.00702038246753387
0.007387674605910471
0.007764345806367774
0.008151080524027231
0.008548569018719183
0.008957512171363452
0.009378626335561822
0.009812648306219893
0.0102603404977903
0.01072249642348398
0.01119994658097409
0.01169356485285299
0.01220427553365404
0.01273306111201751
0.0132809709406253
0.01384913093445192
0.01443875445017056
0.01505115451179515
0.01568775754134175
0.01635011876184182
0.01703993943114223
0.01775908602459943
0.01850961145325774
0.01929377829863933
0.0201140839013737
0.02097328690922436
0.02187443452266363
0.02282088910597559
0.02381635201640914
0.02486488121486648
0.02597089742518153
0.02713917086416889
0.02837477671528664
0.0296830019309399
0.03106917804291511
0.03253840366186143
0.03409510508577707
0.03574236270749852
0.0374809030458287
0.03930761838864152
0.04121342186019475
0.04317906803484682
0.04517335853930966
0.04714841710003173
0.04902041574565231
0.0506032553637491
0.0515040087898672
0.05125660528464423
0.04944047991166952
0.04574652752788044
0.04005724154193636
0.03254103597201386
0.02357564464933446
0.01392103255992621
0.006279933884112994
0.002661899337524386
0.001438843685561685
0.0008938135382234757
0.0005501328936892609
0.0003205694514103993
0.0001713629668642876
8.139087541798103e-05
3.390603844243578e-05
1.235883095463765e-05
3.930389092839826e-06
1.094052293430559e-06
2.932845058760823e-07
2.021500205606906e-07
8.359886232127451e-07
5.502584992038024e-06
4.301098236985268e-05
0.0003569868761997831
0.002425706591390887
0.01093088498826787
0.0341311638258332
0.08710262647518621
0.2045330297494937
0.535384802456083
1.887595242455789e-08
5.139951163404245e-07
3.359458400936364e-06
1.178370086168316e-05
3.009218794608732e-05
6.373868522743402e-05
0.000119394394888071
0.0002046927240504918
0.0003272653699657159
0.0004928112166748089
0.0007026402559709213
0.0009522216053735749
0.00123229598089544
0.001532124726505446
0.001842587672694374
0.002157513985938325
0.002473464926590436
0.002788929125644032
0.003103566857482197
0.003417688068830854
0.003731936879772951
0.004047112854730907
0.00436407366320123
0.004683684198451213
0.005006791771596938
0.005334215774832186
0.00566674524249834
0.006005140601949358
0.006350137537768586
0.006702451819618591
0.007062784483419304
0.007431827055935386
0.007810266693526438
0.008198791199141443
0.008598093942772214
0.009008878739973875
0.009431864760439218
0.009867791552230111
0.01031742427015548
0.01078155920748111
0.01126102973574312
0.01175671275424157
0.01226953577577919
0.01280048476830076
0.01335061288184523
0.0139210502151715
0.01451301476228556
0.01512782470702683
0.01576691222326088
0.01643183894999468
0.01712431328216611
0.01784620960815566
0.01859958955246148
0.01938672520057803
0.02021012412279592
0.02107255576305752
0.02197707839082277
0.02292706521859074
0.02392622742692919
0.02497863053958517
0.02608869867982281
0.02726119845652791
0.02850119021911496
0.02981392863645053
0.03120468646159192
0.0326784639603561
0.03423953084781733
0.0358907264615058
0.0376324158722529
0.03946096301115409
0.04136653274337115
0.04332893840623101
0.04531570350309155
0.0472777160299063
0.04912768889460601
0.05067077559682694
0.05151126702513045
0.05118739444034412
0.04928702458391996
0.04551316636781505
0.03976333633553868
0.0322253186826349
0.02330331557505394
0.0137567235407371
0.006218501651413879
0.002638170248550948
0.001425079471855297
0.0008851984206371524
0.000544934692561328
0.0003176032553280884
0.000169803193673116
8.066711443604329e-05
3.361535334823435e-05
1.225826919259661e-05
3.900635863487991e-06
1.08673137158009e-06
2.925551594814609e-07
2.063181550268451e-07
8.614686212774882e-07
5.669056711856271e-06
4.415709247386376e-05
0.0003638362914163816
0.00245373917769986
0.01100389111216562
0.03427466420460443
0.08741069880331077
0.2049884069650973
0.5360827606592565
1.89893650154211e-08
5.170827414753647e-07
3.379635494694064e-06
1.185448530596927e-05
3.02731387499542e-05
6.412299007591052e-05
0.0001201180299396566
0.0002059438987068766
0.0003292896820550332
0.0004959038856636889
0.0007071177071497828
0.0009583777577008304
0.001240364569218118
0.001542264151665027
0.001854884440227067
0.002171993918537265
0.002490107645911763
0.002807684181220069
0.003124368802577046
0.003440468069141605
0.003756630160510667
0.004073662654712007
0.004392432806036746
0.004713815262061355
0.005038666540638547
0.005367814391180914
0.005702055282463409
0.006042156195854812
0.006388858578527068
0.006742883279464603
0.007104935834430477
0.007475711789417439
0.00785590192628343
0.008246197357635114
0.008647294516821271
0.009059900097931497
0.009484736023058505
0.009922544518350356
0.01037409339559956
0.01084018163457535
0.01132164537154142
0.01181936440440833
0.01233426933102854
0.01286734944511236
0.01341966152775055
0.01399233967068107
0.01458660629200519
0.01520378449334859
0.01584531193045721
0.01651275634504532