/*--------------------------------*- C++ -*----------------------------------*\
| =========                 |                                                 |
| \\      /  F ield         | OpenFOAM: The Open Source CFD Toolbox           |
|  \\    /   O peration     | Version:  v1812                                 |
|   \\  /    A nd           | Web:      www.OpenFOAM.com                      |
|    \\/     M anipulation  |                                                 |
\*---------------------------------------------------------------------------*/
FoamFile
{
    version     2.0;
    format      ascii;
    class       volScalarField;
    location    "1000";
    object      nut;
}
// * * * * * * * * * * * * * * * * * * * * * * * * * * * * * * * * * * * * * //

dimensions      [0 2 -1 0 0 0 0];


internalField   nonuniform List<scalar> 
10965
(
0.000764741329802354
0.0005221172672147704
0.0003095601200540689
0.0002037857536173473
0.0001692052007248658
0.0001495980957705124
0.0001260369011653723
9.713914488369032e-05
6.605826024302878e-05
3.80830874755853e-05
1.821682767554336e-05
7.245582055281328e-06
2.426807143735426e-06
6.95368286573634e-07
1.826261975005575e-07
9.301319202688378e-08
3.267028849083532e-07
2.149044097302281e-06
1.726033610107704e-05
0.0001353655232157251
0.000578807600367055
0.001552807387322517
0.003329192080492258
0.006221311757764277
0.01037604140057024
0.01046068699476459
0.00103662888083962
0.0009699982251585708
0.0009169877033339952
0.0008736187954182502
0.0007636004846279772
0.0005219866750576467
0.0003098587529647241
0.0002036789699664403
0.0001689339487167455
0.0001492590478118078
0.00012565919258878
9.677717922607765e-05
6.576419008210966e-05
3.788874001899191e-05
1.811611761255473e-05
7.204780957702546e-06
2.413603839813366e-06
6.919224453011785e-07
1.82119363152935e-07
9.426782876857839e-08
3.349148891138933e-07
2.206638196541637e-06
1.770422871272982e-05
0.0001376072385311496
0.0005832167510170731
0.001559488355846725
0.003340011290923719
0.006241490596110745
0.01040454329667285
0.01046976671729571
0.001116906625873518
0.001036450067631909
0.0009694173509440861
0.0009163877447121494
0.0008670867421825293
0.0007622013832723929
0.0005216576659545897
0.0003100730908690155
0.0002035529211933374
0.0001686524444053469
0.0001489086069201185
0.0001252691828554665
9.640333565443704e-05
6.546035381105128e-05
3.768806384192941e-05
1.801224008263308e-05
7.162724750388788e-06
2.399995033805812e-06
6.883707365994581e-07
1.816049198877891e-07
9.560817128654776e-08
3.436716237812088e-07
2.268007126011647e-06
1.81730489349356e-05
0.0001399389180313874
0.0005877541080807428
0.001566327864068041
0.003351056085030182
0.00626205001387348
0.01043335980225548
0.01047884600389852
0.00121295615789673
0.00111668775336618
0.001036625811959049
0.0009684068454998842
0.0009123203825429432
0.0008636958186860277
0.0007607220793081999
0.0005212490298891514
0.0003102515174695301
0.0002034222679739852
0.0001683684222063382
0.0001485554141912522
0.0001248768436079432
9.60277633705071e-05
6.515543953213283e-05
3.748694227520459e-05
1.790825751845621e-05
7.120653548314247e-06
2.386383299105926e-06
6.848193397687424e-07
1.810993389251144e-07
9.699763567693284e-08
3.52724896812523e-07
2.331342481971252e-06
1.865268700507415e-05
0.0001422959352690662
0.0005923142055152194
0.001573216347650549
0.003362218111842633
0.006282928991362968
0.01046244059392991
0.01048843652269652
0.001327585245936461
0.001211512151938754
0.001116063008677132
0.001035688409895808
0.0009667042775872587
0.0009093817419804101
0.0008606891940085278
0.000759193404325173
0.0005207819946294925
0.0003104031882468231
0.0002032895124669185
0.0001680823253898702
0.0001481994505964011
0.0001244820290270597
9.565026260052338e-05
6.484924985621967e-05
3.72852247327376e-05
1.780408419690573e-05
7.078531546195766e-06
2.372757299137264e-06
6.812655328983667e-07
1.806026382222379e-07
9.843916715569793e-08
3.620915744902728e-07
2.396736317040504e-06
1.914355311290806e-05
0.0001446786645229119
0.0005968941852400148
0.001580144646425868
0.003373473600650917
0.006304248977591741
0.01049176243097368
0.01049839512683663
0.001452007779754205
0.001324941719131706
0.001210221144437929
0.001115523859321256
0.001034863619195659
0.0009650734251118128
0.0009069371712079795
0.0008585600476243656
0.0007576147519659296
0.0005202569651834933
0.0003105282142513835
0.0002031543203462292
0.0001677937593779255
0.0001478402507458482
0.0001240842538496678
9.527039496216856e-05
6.454145341399676e-05
3.708270812585484e-05
1.769962165601844e-05
7.036321223104118e-06
2.359105652443189e-06
6.777066356740919e-07
1.801148868908278e-07
9.993591401000234e-08
3.717895381978616e-07
2.464285778789135e-06
1.964609040671862e-05
0.0001470880818986991
0.0006014952396905776
0.001587114554643365
0.003384830276172405
0.006325933419334607
0.01052134214882819
0.01050850000668874
0.0015402127778101
0.00144889533047979
0.00132231298392288
0.00120891749706682
0.001114852454636286
0.001034030784650457
0.0009635534294677782
0.0009050807788555533
0.0008571804238475129
0.0007559825929916274
0.0005196736523672673
0.0003106264790526533
0.0002030163023579961
0.0001675023092690735
0.0001474773376071192
0.0001236830298547482
9.488772477676748e-05
6.423172307127153e-05
3.687919318002331e-05
1.759477378924915e-05
6.993986069747897e-06
2.345417302489316e-06
6.741400579899823e-07
1.796362144602373e-07
1.014912348943445e-07
3.81837693976484e-07
2.534092717135233e-06
2.016075549979727e-05
0.0001495251467155577
0.0006061184860176673
0.001594127740951895
0.003396284663595801
0.006348105990293118
0.01055118505523167
0.01051869219648482
1.483585957388932e-14
2.183478169126141e-12
4.081399476802858e-11
2.99008050399313e-10
1.338558291151531e-09
4.457776854193984e-09
1.219751531736194e-08
2.897153917176304e-08
6.169292976565025e-08
1.201444513370704e-07
2.168402396768529e-07
3.664106004631687e-07
5.84947954780306e-07
8.89728979718224e-07
1.299191984538798e-06
1.832754933805016e-06
2.510371291583794e-06
0.001541010002795634
0.001445709894329291
0.0013196276246432
0.001207529232294866
0.001114089214592581
0.001033150773869699
0.0009623199654081468
0.0009036864817932473
0.0008527332897982025
0.0007542858490180272
0.0005190323682850145
0.0003106979408562729
0.000202875101773849
0.0001672075698503185
0.00014711023696418
0.0001232778694634939
9.450181720324599e-05
6.391973369005842e-05
3.667448294243038e-05
1.748944612553699e-05
6.951490337012562e-06
2.331681444756828e-06
6.705632834385185e-07
1.791668102980586e-07
1.031087113348248e-07
3.922560261400025e-07
2.606263824850228e-06
2.068801824821667e-05
0.0001519907984927971
0.0006107649623785494
0.001601185694436498
0.003407842916917293
0.006370741590939668
0.01058130796816361
0.01052896732963319
1.497933965531832e-14
2.204584138870237e-12
4.120831999195903e-11
3.018961375795332e-10
1.351491816805587e-09
4.500916673369079e-09
1.231596646371036e-08
2.925457097633238e-08
6.230092527499936e-08
1.213419720902575e-07
2.190303611616732e-07
3.701644781654209e-07
5.910254828121978e-07
8.990887283251501e-07
1.312994511493213e-06
1.852380876376902e-06
2.537494432140038e-06
3.388848707701025e-06
0.001541714869231062
0.001442479777794652
0.001316925900561358
0.001206098049677162
0.001113287704098385
0.00103236380112133
0.000961894376985236
0.0009005602376874264
0.0008495234177972305
0.0007525286677561458
0.0005183334396374062
0.0003107425201308892
0.0002027303751334826
0.0001669091393231348
0.0001467384731455779
0.0001228682841242003
9.411223781001678e-05
6.360516198761687e-05
3.64683828126661e-05
1.738354586120083e-05
6.908799038003558e-06
2.31788752549834e-06
6.669738697819522e-07
1.787069271557046e-07
1.047921633399239e-07
4.030656613395944e-07
2.680910820513729e-06
2.12283617447189e-05
0.0001544859544430025
0.0006154356234349692
0.001608289656748893
0.003419512091790239
0.006393804746713735
0.01061173545508128
0.01053930474549569
1.51252662702555e-14
2.226059071037989e-12
4.160973014025102e-11
3.048380271691503e-10
1.364679401202977e-09
4.544974257366201e-09
1.243724453493278e-08
2.954546781949204e-08
6.292918170367982e-08
1.225879950040472e-07
2.213276677352705e-07
3.741351804053828e-07
5.975016345689895e-07
9.091090840322612e-07
1.3277678351094e-06
1.873219617860338e-06
2.565739799126935e-06
3.425812115780319e-06
4.474117584173651e-06
0.001550715287209695
0.00154232570324367
0.00143924013777126
0.001314243821651602
0.001204643232719017
0.001112531414719533
0.001031873077451755
0.0009593696445124376
0.000897850630813568
0.0008469626470242604
0.0007507110890544823
0.0005175766998436273
0.0003107599913002545
0.000202581760316642
0.000166606607901542
0.0001463615635433182
0.0001224537822081539
9.371855261836773e-05
6.328768711441599e-05
3.626070097787466e-05
1.727698207848555e-05
6.86587801480799e-06
2.304025260540039e-06
6.63369454335835e-07
1.782568859853814e-07
1.065456661201712e-07
4.142889345823954e-07
2.758150623007973e-06
2.178228218723336e-05
0.0001570115065329384
0.0006201313345543001
0.001615440907726596
0.003431299033064931
0.006417204993496515
0.01064251303979449
0.01054967306879122
1.526447394940676e-14
2.246543172666898e-12
4.199260173084741e-11
3.076443885844231e-10
1.377265440518603e-09
4.587067230975798e-09
1.255333697068085e-08
2.98247504750507e-08
6.353478970255779e-08
1.237950009575731e-07
2.235649186034634e-07
3.7802203428243e-07
6.038689499005107e-07
9.189932204167853e-07
1.342369695601644e-06
1.893834659792077e-06
2.593682023662379e-06
3.462358074401358e-06
4.520480744939151e-06
5.789184787996334e-06
7.289916415812214e-06
9.046650581250855e-06
1.108524691063847e-05
1.343400869660357e-05
1.612419437168981e-05
1.919039305112548e-05
2.267087545159596e-05
2.660793842317309e-05
3.104825190503191e-05
3.604321308992391e-05
4.164930934888281e-05
4.792848862820216e-05
5.494853353840094e-05
6.278343286929866e-05
7.151374173342413e-05
8.122691835474282e-05
9.201762237369626e-05
0.0001039879554017786
0.0001172476199095833
0.0001319139672829098
0.0001481118994132635
0.0001659735815977949
0.0001856379160546363
0.0002072497174581954
0.0002309585224290287
0.0002569169555553529
0.0002852785661034799
0.0003161950409808387
0.0003498126944690632
0.0003862681325906602
0.0004256829935460103
0.0004681576764423493
0.0005137639919495868
0.0005625367035227005
0.0006144639808393159
0.0006694768582102483
0.0007274378878183231
0.0007881292964477165
0.0008512410974503551
0.0009163597675562754
0.0009829582624873545
0.001050388291899667
0.001117875875006237
0.001184521212855034
0.00124930379394957
0.001311093346981353
0.001368666741272236
0.001420730217105987
0.001465945501975014
0.001502957657625793
0.001530422299217335
0.001547030609268253
0.001551555194984742
0.001542839642628712
0.001435977729598599
0.001311576171813436
0.0012031700510167
0.001111622207386845
0.001030422583226809
0.0009573924988752527
0.0008954905041295622
0.0008450984298153446
0.0007488311306788018
0.0005167615624294845
0.0003107499906184446
0.0002024288719455482
0.0001662995558632572
0.000145979017746677
0.0001220338689624521
9.332032827626839e-05
6.296699082607518e-05
3.605124855324085e-05
1.716966576945295e-05
6.82269395655211e-06
2.290084640716755e-06
6.597477561983269e-07
1.778170802843115e-07
1.083735672826732e-07
4.259494555135007e-07
2.838105510466005e-06
2.235028858446184e-05
0.000159568317774643
0.0006248528687048775
0.001622640635208972
0.003443194191487221
0.006441149616443298
0.01067369207007103
0.0105600421297887
1.539590571711472e-14
2.265883716365965e-12
4.235412622445584e-11
3.102948708373547e-10
1.389159016847902e-09
4.626890073634664e-09
1.266339177496182e-08
3.009034585160982e-08
6.411323789462565e-08
1.249541075193175e-07
2.257261786867082e-07
3.817987536193579e-07
6.100869844023735e-07
9.286819090555963e-07
1.356715444790964e-06
1.914104532948519e-06
2.621141066991695e-06
3.498205258408187e-06
4.565813633755838e-06
5.844983335955713e-06
7.35776841717089e-06
9.127827625588629e-06
1.118094318845673e-05
1.354548089000991e-05
1.625279506600297e-05
1.933759668093864e-05
2.283830250992672e-05
2.679737872454331e-05
3.126168755582828e-05
3.628284169575001e-05
4.191756772676584e-05
4.822807719787279e-05
5.528244136160287e-05
6.315496325022382e-05
7.192653788622479e-05
8.168498883504186e-05
9.252536532920466e-05
0.0001045501807940929
0.0001178695683372514
0.0001326013237189954
0.0001488707999401736
0.0001668106103725967
0.0001865600896701825
0.0002082644529182175
0.0002320735844234766
0.0002581403782720071
0.0002866185438620016
0.0003176597817757311
0.0003514102298334168
0.0003880060774190171
0.0004275682494706149
0.0004701960734196775
0.0005159598643148389
0.0005648924001994327
0.0006169793118138163
0.0006721484871028843
0.000730258686419982
0.0007910876875333606
0.0008543204228961031
0.00091953773329535
0.000986206524930018
0.00105367226530885
0.00112115485121653
0.001187748892398711
0.001252429325173959
0.001314062958216763
0.001371426019371738
0.001423227032944287
0.001468133504799592
0.00150480014573157
0.001531896130101979
0.001548129775755622
0.001552295001968985
0.001543250501519589
0.001432625695853728
0.001308858676161016
0.001201595408929435
0.00111057210342482
0.001029082479992605
0.0009556171960994586
0.0008936201178012955
0.0008422306886596612
0.0007468810224585437
0.0005158869370140163
0.000310712062361033
0.0002022713079921402
0.0001659875559141189
0.0001455903386600177
0.0001216080468674793
9.291713191908403e-05
6.264275736450374e-05
3.583983951745578e-05
1.706150984640657e-05
6.779214388622042e-06
2.276055928078548e-06
6.561065764086315e-07
1.773879802745604e-07
1.10280504855821e-07
4.380721761553669e-07
2.9209032693828e-06
2.293290234209184e-05
0.0001621572180922763
0.0006296008988002368
0.001629889678885557
0.00345520398682578
0.00646560904758671
0.01070535471212474
0.01057038715746812
1.552437151661506e-14
2.284788522466538e-12
4.270753687855796e-11
3.1288652156271e-10
1.400795518937287e-09
4.665897685402361e-09
1.27714069982936e-08
3.035179178807573e-08
6.468490616880945e-08
1.261050683446164e-07
2.278831914247298e-07
3.855865743797042e-07
6.163499858367976e-07
9.38474084267089e-07
1.371252468544994e-06
1.934687756726071e-06
2.649079547423573e-06
3.534761942833304e-06
4.612186363687154e-06
5.902315427883457e-06
7.427174667209958e-06
9.210425155341137e-06
1.127788628886874e-05
1.365799229672346e-05
1.638219361409987e-05
1.948532239820321e-05
2.300593998135122e-05
2.698667958079879e-05
3.147459274514235e-05
3.652150399423099e-05
4.218437480376654e-05
4.852567536150812e-05
5.561376002034904e-05
6.352323980471251e-05
7.233534292218952e-05
8.213825083346121e-05
9.302739446005022e-05
0.0001051056905182049
0.0001184836937587057
0.0001332796349535587
0.00014961930844957
0.0001676357657818617
0.0001874687640578331
0.0002092639088575979
0.0002331714226525075
0.0002593444600385619
0.00028793688243392
0.0003191003970341248
0.0003529809597484238
0.0003897143394028208
0.0004294207458089433
0.000472198435153564
0.0005181162301671967
0.0005672049289818853
0.0006194476325725289
0.0006747690950082807
0.0007330243014309603
0.0007939866020879852
0.0008573358764774214
0.000922647364664087
0.0009893819685834974
0.001056878970471221
0.001124352215437701
0.001190890806913649
0.001255465228252229
0.001316939477058366
0.001374089248510919
0.001425625444471098
0.001470221403065367
0.00150654147148461
0.001533268275492682
0.001549126933561368
0.001552930461606596
0.00154228056418241
0.001429127469368851
0.00130604600009446
0.001199907383488733
0.001109377426444552
0.001027758454208714
0.0009546187034107661
0.0008914021232489313
0.000838517383486561
0.0007448562873283917
0.000514952091258014
0.0003106456691534659
0.0002021086510007814
0.0001656701742250532
0.0001451950224755366
0.0001211758154860323
9.25085309616669e-05
6.231467348889257e-05
3.562629072399958e-05
1.695242909546842e-05
6.735407667658742e-06
2.261929655240593e-06
6.524437988598286e-07
1.7697013755672e-07
1.12271426536503e-07
4.506834613863794e-07
3.006677338744632e-06
2.35306567699059e-05
0.0001647789998509875
0.0006343759929342429
0.001637188932763592
0.003467333371713465
0.006490483280285596
0.01073838487161847
0.01058068674787789
1.564821285940124e-14
2.303012505934781e-12
4.30482321453888e-11
3.153854439614256e-10
1.412022222923305e-09
4.703577844492787e-09
1.287597198250808e-08
3.060572417964981e-08
6.52426333494334e-08
1.272340169388985e-07
2.300111704462195e-07
3.893439541023609e-07
6.225915059214455e-07
9.482664563183818e-07
1.385822313799136e-06
1.955341840273793e-06
2.677125044550257e-06
3.571452921643061e-06
4.658706031978846e-06
5.959787640751838e-06
7.496692033989331e-06
9.293082998923178e-06
1.137481618036065e-05
1.377039264570053e-05
1.651135700190424e-05
1.963266027195186e-05
2.317300563366873e-05
2.717519022591363e-05
3.168645135274501e-05
3.675882137449534e-05
4.244949223487791e-05
4.882118788912842e-05
5.594254041858467e-05
6.388846306861334e-05
7.27405108721031e-05
8.258721645456613e-05
9.352438508666448e-05
0.0001056553290693707
0.0001190910165593144
0.0001339501046990551
0.0001503588201061788
0.0001684506431211604
0.0001883657435903819
0.0002102501077830158
0.0002342542863903065
0.0002605316846475568
0.0002892363062964538
0.000320519855929727
0.0003545280987110115
0.0003913963751517316
0.0004312441731581776
0.0004741686724533021
0.000520237199860613
0.0005694785727892164
0.0006218733641984749
0.0006773431998694254
0.0007357393002341517
0.0007968306039592887
0.000860291960800967
0.000925693042778584
0.0009924887903267417
0.00106001235652063
0.001127471605204733
0.001193950219219915
0.001258414328507664
0.001319725227976886
0.001376658187456308
0.001427926573141705
0.001472209592357283
0.001508181170863024
0.001534537157097305
0.001550019289380354
0.001553457723426164
0.001539036027234568
0.001425477292086717
0.001303162513124509
0.001198129205449256
0.001108090115585014
0.001026705183051903
0.0009527304749966131
0.0008883445673782349
0.000835335716976955
0.0007427568963917095
0.0005139560623446779
0.0003105501710482512
0.0002019404647636316
0.0001653469692125688
0.0001447925588304509
0.0001207366711074998
9.209409332772241e-05
6.198242854588594e-05
3.541042199487784e-05
1.684234026762319e-05
6.691242998534707e-06
2.247696629403076e-06
6.487573925285196e-07
1.765641904145834e-07
1.143516102610193e-07
4.638111616531244e-07
3.095566944664077e-06
2.414409647469601e-05
0.0001674344129942947
0.0006391786114285235
0.001644539014616912
0.003479571361159968
0.006516006175908655
0.01077190446202834
0.01059087413292173
1.576755984961146e-14
2.320575215737912e-12
4.3376585639402e-11
3.17794464880869e-10
1.4228523921746e-09
4.739977866715595e-09
1.29772286671372e-08
3.085252041045772e-08
6.578733217929404e-08
1.283429805871653e-07
2.321142534921714e-07
3.930786465263605e-07
6.288248966275194e-07
9.580802803812227e-07
1.400456571749849e-06
1.976111169654632e-06
2.705337272347249e-06
3.608356073925466e-06
4.705472257678796e-06
6.017526436242103e-06
7.56647954635943e-06
9.375996571714158e-06
1.147196802860039e-05
1.388296031941468e-05
1.664061044160506e-05
1.977998618417244e-05
2.333993008170547e-05
2.736340031415067e-05
3.189781666553703e-05
3.699541563879436e-05
4.271361550007345e-05
4.911538939726811e-05
5.626964206708477e-05
6.425158342144176e-05
7.314308927600163e-05
8.303303679509498e-05
9.401759852052564e-05
0.0001062004746028608
0.0001196930384356628
0.0001346143647062446
0.0001510911030671776
0.0001692571528305175
0.0001892530863959734
0.0002112252600454709
0.00023532454182011
0.0002617045763937215
0.0002905194986790031
0.0003219209995082986
0.0003560546424661717
0.000393055329289655
0.0004330418164558042
0.0004761101985727217
0.0005223262994798908
0.0005717169506481477
0.0006242601944640147
0.0006798745292880063
0.0007384074157000347
0.000799623391980923
0.0008631922964830049
0.000928678260628892
0.0009955303029944278
0.001063075500610405
0.001130515805058891
0.001196929563779157
0.001261278653207622
0.001322421773989997
0.001379133874921607
0.00143013086200317
0.001474097816116114
0.001509718100485739
0.001535700386549638
0.001550804458767463
0.001553875154973891
0.001535590704864292
0.001421749308697289
0.001300252179506825
0.001196298951899295
0.001106729467001348
0.00102522585572647
0.0009506834875670233
0.000885548324349555
0.0008327882851411785
0.000740581744762187
0.0005128976361474996
0.0003104248230465281
0.0002017662916453851
0.0001650174910419401
0.0001443824297478888
0.0001202901070540981
9.167338737754435e-05
6.164571474464034e-05
3.51920563009875e-05
1.673116211263116e-05
6.646690459261299e-06
2.233347940495722e-06
6.450454147438444e-07
1.761708696484086e-07
1.165266858473746e-07
4.774846870927268e-07
3.187717218857822e-06
2.477377659605611e-05
0.0001701241598082643
0.0006440090951537811
0.001651939657496835
0.003491930317657813
0.006542146216672128
0.01080562900918445
0.01060091238623223
1.588246572119169e-14
2.337484465954671e-12
4.369274337893639e-11
3.20114654260496e-10
1.433290867653025e-09
4.775114465977739e-09
1.307522681533715e-08
3.109231769139728e-08
6.631936334055078e-08
1.294328582329985e-07
2.341945164470352e-07
3.967949987941715e-07
6.350583475759873e-07
9.679294890608341e-07
1.41517691528576e-06
1.997027060056374e-06
2.733758925844541e-06
3.645527057383849e-06
4.752555142866988e-06
6.075617779798546e-06
7.636640420267925e-06
9.459287741329963e-06
1.156948381197986e-05
1.399585896610146e-05
1.677014097064113e-05
1.992751243442109e-05
2.350695298802873e-05
2.755157922637393e-05
3.210899041824337e-05
3.723162381577608e-05
4.297712023547731e-05
4.940869778427672e-05
5.659552924226299e-05
6.461311603706873e-05
7.354364916739215e-05
8.347634425018208e-05
9.450773441073613e-05
0.0001067419004939973
0.0001202906133013247
0.0001352733567422156
0.0001518171945255949
0.0001700564353706146
0.0001901320440523963
0.0002121907361551827
0.0002363836856533725
0.0002628647649155633
0.0002917882275952634
0.000323305738108041
0.0003575626454512181
0.0003946933995456202
0.0004348160123539198
0.000478025480908883
0.0005243861143614682
0.0005739227478863351
0.0006266108852788761
0.0006823658923805214
0.000741031469591167
0.000802367760197177
0.0008660396046116414
0.0009316056175001228
0.0009985089320256693
0.001066070600805674
0.001133486731703873
0.001199830423422448
0.001264059400782424
0.001325029881714539
0.001381516599165006
0.001432238067022219
0.001475885196084522
0.001511150429226124
0.001536753921340213
0.001551480868841784
0.001554182246781766
0.00153211097383654
0.001417971144708274
0.001297344431312529
0.001194420597855374
0.001105283874665534
0.001023596499984826
0.0009484858863362566
0.0008829974549758061
0.0008294260795662184
0.000738325227503725
0.0005117753025493505
0.000310268789964005
0.0002015856521190495
0.0001646812809126235
0.0001439641101625278
0.000119835613313073
9.124598232612158e-05
6.130422739678575e-05
3.497101994620359e-05
1.661881551721345e-05
6.601721034355612e-06
2.218874970193859e-06
6.413060147785419e-07
1.757910048722382e-07
1.188026578332586e-07
4.917350824852676e-07
3.283279298192279e-06
2.542026189229249e-05
0.0001728488889244586
0.0006488676537952829
0.001659390431914973
0.003504421571978391
0.006568856365308218
0.0108395115382528
0.0106107667977521
1.599304847247931e-14
2.353757635962653e-12
4.399703123032366e-11
3.223484259406175e-10
1.443348771809263e-09
4.809026770327698e-09
1.317008319506055e-08
3.132542872435849e-08
6.683949780843924e-08
1.305054098421404e-07
2.362556619163937e-07
4.00500138747046e-07
6.413043750045424e-07
9.778342104419875e-07
1.43001328233341e-06
2.018131240927676e-06
2.762445252140262e-06
3.683036175198666e-06
4.800041486476241e-06
6.134166379446891e-06
7.707298712507433e-06
9.543101412245543e-06
1.166753086734156e-05
1.41092800535077e-05
1.690016599548203e-05
2.007548434703694e-05
2.367434971237712e-05
2.774003464885405e-05
3.232031508149144e-05
3.746782582730041e-05
4.324042665265318e-05
4.970157661050188e-05
5.692071205825536e-05
6.497362102741624e-05
7.394280427835983e-05
8.391780992475749e-05
9.499552516456736e-05
0.0001072804044681968
0.0001208846083269742
0.0001359280215427537
0.0001525381128219855
0.0001708495906286502
0.0001910038016472033
0.0002131478095860711
0.0002374330825399525
0.0002640137078296935
0.0002930440446593325
0.000324675716897236
0.0003590538444411263
0.0003963124103168815
0.0004365686666710672
0.0004799164975820691
0.0005264186826302975
0.0005760980467772295
0.0006289275428466737
0.000684819394987735
0.0007436135380889561
0.0008050657213311335
0.0008688357962503591
0.0009344768806594552
0.001001426255598232
0.001068998999403628
0.001136385445108322
0.00120265353106988
0.001266756938337066
0.001327549523424217
0.001383805930755297
0.001434247405818156
0.001477570828272537
0.00151247806338682
0.00153770235278635
0.001552048018266075
0.001554378131119672
0.001528506478962691
0.001414098029845782
0.001294418720773395
0.001192475787685716
0.00110372172989784
0.001021832379077533
0.0009461258287184177
0.0008801106606056756
0.0008264696360825305
0.0007359883740192784
0.0005105878081118698
0.0003100811552552735
0.0002013980444246323
0.0001643378713823709
0.0001435370673308804
0.000119372677085619
9.081144839144528e-05
6.095766528027974e-05
3.474714282175707e-05
1.650522356988966e-05
6.55630665157393e-06
2.20426940341568e-06
6.375374382037555e-07
1.754255313057273e-07
1.211859293940912e-07
5.065951024449345e-07
3.382410399767875e-06
2.608412563419177e-05
0.0001756091891711859
0.0006537543609330975
0.001666890261661391
0.003517067773305454
0.006596091742890847
0.01087348231778855
0.01062039979696932
1.609927355523921e-14
2.369389617871473e-12
4.428935370023585e-11
3.244950952356333e-10
1.453023228794354e-09
4.841706662746639e-09
1.326178332126189e-08
3.155185017527065e-08
6.734782920542586e-08
1.315610869207587e-07
2.382990924881259e-07
4.041974784786839e-07
6.475699108292939e-07
9.878066463632144e-07
1.444984845921828e-06
2.039451307028034e-06
2.791433429594076e-06
3.720931135105845e-06
4.847990326255988e-06
6.193243343812981e-06
7.778538313516292e-06
9.627534966681713e-06
1.176622081397481e-05
1.422335022397196e-05
1.703082805149766e-05
2.022406128211019e-05
2.384229749652195e-05
2.792896286926293e-05
3.253200731123751e-05
3.770426015164905e-05
4.350379667131551e-05
4.999431306725159e-05
5.724550498832637e-05
6.533344238307308e-05
7.434093056365522e-05
8.435784441419893e-05
9.548141898129033e-05
0.0001078164754316639
0.0001214755565204625
0.0001365789397349584
0.0001532544899087736
0.0001716373055799419
0.0001918691049100195
0.0002140972883765881
0.000238473605918115
0.0002651523467311881
0.0002942879612445665
0.0003260320177144766
0.000360529390785276
0.0003979135794780108
0.000438301058397937
0.0004817845803554264
0.0005284253768671047
0.0005782442448343734
0.0006312115697165102
0.0006872364197782736
0.00074615495486626
0.0008077185262732665
0.0008715820020122906
0.0009372930195097638
0.001004283039681669
0.001071861216055887
0.001139212177267997
0.001205398794909992
0.00126937082199673
0.001329979890838109
0.001386000712183458
0.001436157437237469
0.001479153125914349
0.001513699344284416
0.001538542507322238
0.001552503653486
0.001554461003320593
0.001524742145726144
0.001410116646462172
0.00129144793578178
0.001190446530132067
0.001102037494235296
0.001019930568268523
0.0009436760657364149
0.0008792274213661462
0.0008261768111330253
0.0007335742071826763
0.0005093334430232936
0.0003098609231675538
0.00020120294423994
0.0001639867859381397
0.0001431007614354378
0.000118900783041665
9.036935735106009e-05
6.060573109762594e-05
3.452025865588554e-05
1.639031169924688e-05
6.510420226539021e-06
2.189523241900155e-06
6.337380318190924e-07
1.75075497115601e-07
1.236833273593664e-07
5.220992864801739e-07
3.485273866217936e-06
2.676594831251903e-05
0.0001784055825172916
0.000658669124617964
0.001674437016165861
0.003529926490507084
0.006623801598165803
0.01090663734568027
0.01062977507842616
1.620111040158046e-14
2.384375922806315e-12
4.456962781226472e-11
3.265540803437155e-10
1.462311947399348e-09
4.873148641155431e-09
1.335032241233934e-08
3.177160947557053e-08
6.784453590341051e-08
1.32600542961297e-07
2.403266343618765e-07
4.078912148556217e-07
6.538631729231618e-07
9.978608858364686e-07
1.460113287302383e-06
2.061017922316027e-06
2.820764152188769e-06
3.759263450844061e-06
4.896464664043893e-06
6.252923758258931e-06
7.850446980666977e-06
9.712689444960904e-06
1.186566860474736e-05
1.433819902737365e-05
1.716227200644009e-05
2.037340422605961e-05
2.401097429492105e-05
2.81185597499695e-05
3.274428187627571e-05
3.794116155748379e-05
4.376748626263718e-05
5.028718557073056e-05
5.757021028663058e-05
6.56929076365554e-05
7.473838238550564e-05
8.479683056461862e-05
9.596582883842752e-05
0.0001083505583150119
0.0001220639364988486
0.000137226625379265
0.0001539668770233716
0.0001724201702042184
0.0001927285838396116
0.0002150398435826857
0.0002395059684419147
0.0002662814355596498
0.0002955207716148815
0.0003273754729168069
0.0003619901511869385
0.0003994978027538488
0.000440014104585302
0.0004836306574495945
0.000530407123544814
0.0005803622504329704
0.0006334638361058839
0.00068961777537297
0.0007486564393087444
0.0008103267744362089
0.0008742786670055369
0.0009400542889714234
0.001007079311479708
0.001074657013610381
0.001141966393434185
0.001208065354538213
0.001271899847571583
0.001332319431669038
0.001388099057117128
0.00143796597059774
0.001480629602119502
0.001514811341925532
0.001539270636939295
0.001552844911085053
0.001554428292648193
0.001520813732147611
0.001406031252004964
0.001288418021585561
0.001188329318912025
0.001100243876760504
0.001017931543047703
0.0009418988243555017
0.0008763641944323034
0.0008205083044898774
0.0007310580269305061
0.000508010229402324
0.0003096070364787848
0.0002009998039518316
0.0001636275391653537
0.0001426546456750916
0.0001184194133452251
8.99192831101321e-05
6.024813195035704e-05
3.42902053787611e-05
1.627400787374513e-05
6.464035721958418e-06
2.174628820729046e-06
6.299062494509458e-07
1.747420713174511e-07
1.263021283035737e-07
5.382840327631893e-07
3.592039179011728e-06
2.746631611671788e-05
0.0001812385166423011