/*--------------------------------*- C++ -*----------------------------------*\
| =========                 |                                                 |
| \\      /  F ield         | OpenFOAM: The Open Source CFD Toolbox           |
|  \\    /   O peration     | Version:  v1812                                 |
|   \\  /    A nd           | Web:      www.OpenFOAM.com                      |
|    \\/     M anipulation  |                                                 |
\*---------------------------------------------------------------------------*/
FoamFile
{
    version     2.0;
    format      ascii;
    class       volScalarField;
    location    "1000";
    object      omega;
}
// * * * * * * * * * * * * * * * * * * * * * * * * * * * * * * * * * * * * * //

dimensions      [0 0 -1 0 0 0 0];


internalField   nonuniform List<scalar> 
10965
(
36.3300190268353
31.43636671213842
23.12080359576319
14.86711974445175
9.810748520159017
6.895021744354482
5.022629386377867
3.786736226481324
2.970149210209182
2.440304855882217
2.116398743880935
1.928014298370136
1.816147653196559
1.743245382382435
1.689884157653384
1.647762913219264
1.61345996886105
1.588141281635465
1.597470994015967
1.905700586161047
3.451842048848468
6.292670750186081
9.56894621232531
13.27331473848068
19.01163059089311
39.27192809488308
38.50613022915384
39.21360894912254
39.2115295617461
38.34758910425384
36.08711724276733
31.19813119255651
22.96399412281309
14.77681178425478
9.752035236579596
6.858472037626553
5.000483134932621
3.773388185638648
2.962225093498469
2.435734010498227
2.113764783619466
1.926386366982428
1.81500178718607
1.742330492610206
1.689090235585301
1.647041781378074
1.612793573682239
1.587605882881305
1.597851389629919
1.910531182995707
3.464351356212926
6.306277339120266
9.575864648564414
13.26723034513058
18.99804249556918
39.25912550053193
37.13910128831042
38.47837160327123
39.13088106124567
39.07281821402626
38.15124164472562
35.84169309166422
30.95530768988592
22.80134209434826
14.68334529999096
9.691832067092097
6.821026346160979
4.977783625542339
3.759704091033679
2.954100134134642
2.431050273146777
2.111070216028142
1.924724390857868
1.813834408842681
1.741400216105717
1.688284423467833
1.646311104303353
1.612120130226792
1.587071680167628
1.598279346264219
1.915555323077113
3.477132087940661
6.320051271546746
9.582798070630563
13.26117235690869
18.98461252851506
39.24650475769532
35.24744340643888
37.16422915875862
38.4476213423593
39.04712240851537
38.93413752585628
37.95497373950249
35.59730795020315
30.71370974708477
22.63839104498404
14.5898366695909
9.6317734750622
6.783636240621706
4.955098806000969
3.746023052789765
2.945973036217185
2.426362824542982
2.108371604326629
1.923057974745428
1.812662334343239
1.740465181493785
1.687473879969771
1.645575787730922
1.611442548654494
1.58653694304624
1.598723475615847
1.920649477662078
3.490013848173877
6.333847647253913
9.589635063421458
13.25527052867101
18.97114207195864
39.23403970023742
33.11023937951403
35.31982096212106
37.18650828010957
38.41691155325763
38.96274311589606
38.79495354932768
37.75868651725497
35.35406665299934
30.47350321585935
22.47530287046719
14.49631559994152
9.571846906972025
6.746286131803115
4.932416130887812
3.732335553780566
2.93783714029081
2.421667342289729
2.105666235440036
1.921385362979015
1.81148431678431
1.739524418075661
1.686657799926604
1.644835147835736
1.610760255722384
1.586001314262427
1.599184182267367
1.925815621994444
3.502994053777783
6.347650927160336
9.596319821640064
13.24913217027857
18.95759536950816
39.22168004414276
31.10977208580969
33.21281928963076
35.38872551595998
37.20647644207577
38.38462087132646
38.87704487167439
38.65466165524458
37.56180493628228
35.11156095727799
30.23431137336651
22.31189983397174
14.40266530482298
9.511978625412709
6.708932307670104
4.909709837216053
3.718626378759511
2.929683673161987
2.416958928892984
2.102951342711022
1.919704858803838
1.810299176130767
1.73857700951129
1.685835421952918
1.644088532631653
1.610072704814599
1.585464461792339
1.59966194486577
1.931056850074163
3.516077485317176
6.361463036412826
9.602877374265942
13.24295078319153
18.94393815719678
39.20938767817814
29.42743073251505
31.22170128001926
33.3117381879437
35.4539467527287
37.22459326551277
38.35024977494405
38.78938799283797
38.5126805146627
37.36395168420201
34.86944618118822
29.99575728495244
22.1479986342527
14.30876876328212
9.452096303327034
6.671531971653376
4.886954725226993
3.704880683054143
2.921504084679118
2.412232810016673
2.100224226227521
1.91801480341514
1.8091057549527
1.737622053276959
1.685005993958621
1.643335295607782
1.60937935454941
1.584926063518949
1.600157269456071
1.936376298232284
3.529268841498188
6.375285503832569
9.609273610415842
13.23649614694212
18.93018628038593
39.19713265913061
1165102.28880415
215568.9156664585
75378.1653321492
36090.4767958972
20588.0146279842
13094.29008026115
8964.161469050276
6470.628497191841
4859.047503837277
3758.630233607736
2971.222507089368
2385.091880122357
1935.357124376792
1583.385215074662
1305.008061432285
1083.796311098421
907.5574105305038
29.53907603789315
31.33080174570655
33.40727513590492
35.51602142549769
37.23945922049681
38.31291286874502
38.69908351384227
38.36881727720544
37.16522925029532
34.62728705158332
29.75752971868248
21.98342936554947
14.21451402398993
9.392130438557436
6.634043731844278
4.864126256163765
3.69108393956293
2.913289963827531
2.407484258354895
2.097482191989918
1.916313524712291
1.807902876984186
1.736658627776408
1.684168746408663
1.642574775420472
1.608679652478499
1.584385795932312
1.600670680336472
1.941777138692684
3.542572734208758
6.389119881777479
9.615520892932718
13.22964630288477
18.91630984768798
39.18488635211644
1165102.276148791
215568.865235235
75378.03762946776
36090.21681153373
20587.55436581598
13093.55271481828
8963.067492915447
6469.105683299104
4857.047233025669
3756.150694072426
2968.332132461935
2381.936812745201
1932.136625600943
1580.29823246347
1302.197058714766
1081.315939865559
905.3764605841602
764.751039397279
29.64846450717339
31.43721382452679
33.4996132315835
35.575123825267
37.25052884440471
38.27186756154777
38.60582748604537
38.22339714891291
36.96528159802801
34.38481071073343
29.51933192992791
21.81802995363203
14.11979348184331
9.332014072550409
6.596427479247504
4.841200504102281
3.677221912263269
2.905033035384092
2.40270859870826
2.094722555953083
1.914599341155048
1.806689350294781
1.735685794890758
1.683322894252375
1.641806297434984
1.607973036167274
1.583843335128005
1.601202720934479
1.947262580407584
3.555993681297977
6.402966622129075
9.621626923869171
13.22250199064645
18.90227350611288
39.17262379391927
1165102.270184877
215568.8178782889
75377.90599248043
36089.93432346891
20587.0375715963
13092.70705482811
8961.794619234257
6467.315064007944
4854.674783761978
3753.185118713514
2964.842429941358
2378.084174326795
1928.153213345546
1576.434259156368
1298.661698217526
1078.240794864562
902.8115279726242
762.6833064364663
650.1511778351783
28.26963806508272
29.75573558006326
31.54106936573918
33.58879728808188
35.6311747274545
37.25749476396516
38.22704250929876
38.51159042678375
38.07600273372246
36.76368146533691
34.14169813721568
29.28087039422659
21.65164007386198
14.02450212271907
9.271682269672967
6.558644180363602
4.818154111016259
3.663280665466786
2.896725176700689
2.397901228991583
2.091942660004981
1.912870577687726
1.805463979543902
1.734702609750102
1.682467644694204
1.641029179587852
1.607258937788057
1.583298360102894
1.60175395635709
1.952835870284577
3.569536100086351
6.4168258757602
9.627608527528027
13.21558655594322
18.88801044376525
39.16032794648518
1165102.269403934
215568.7582977793
75377.73943475288
36089.58506059086
20586.41641538434
13091.71766263957
8960.34133832423
6465.31481994461
4852.075419403917
3749.990429797844
2961.137161397386
2374.042757854967
1924.015967246744
1572.453559795938
1295.043856256086
1075.111590720573
900.2141715546209
760.5984572606197
648.5233976204223
557.8910105700227
484.0033815677479
423.1701072070847
372.5962116760823
330.1534909904075
294.2126380006998
263.5197169064695
237.1029518613353
214.2031440517004
194.2220235547215
176.6839423301194
161.2073883564548
147.4837012393736
135.2610696879927
124.3324148862532
114.526146656556
105.6990566730953
97.73081193541616
90.51965541446495
83.97902407636546
78.03486921591879
72.6235185895039
67.68995943017613
63.18645099859016
59.07139680225375
55.30842299094287
51.86562160529763
48.71492650240741
45.83159694455146
43.19378913795231
40.78220025991868
38.57977274817472
36.57144921682661
34.74397040981309
33.08571025202784
31.58654337585712
30.23774166945744
29.0318972702767
27.96287026091679
27.02575999794578
26.21689962961936
25.5338738737667
24.97556061133987
24.54219726033908
24.23547323367199
24.05865006641243
24.01671096725849
24.11654146312083
24.36714202577256
24.77987077428339
25.3687062100939
26.15049893846655
27.14512875804857
28.37400220947163
29.86101244342814
31.64256496042886
33.67527821826776
35.68310998410206
37.26158897698875
38.18195320001279
38.41502196434637
37.92615326962773
36.56002000967069
33.89763615734782
29.04185843205391
21.48410156487673
13.92853726234906
9.211072004983212
6.520655847341913
4.794964263395226
3.649246558280123
2.888358422704058
2.393057622530542
2.089139879855743
1.911125567354568
1.804225567821514
1.733708122032308
1.681602198134927
1.64024273293587
1.606536784540785
1.582750552964953
1.602324973379195
1.958500291623965
3.58320430257709
6.430697838219076
9.633408564551157
13.20844080404576
18.87349539384454
39.14799393757295
1165102.272985285
215568.6929200796
75377.55288517705
36089.19374710204
20585.72446249276
13090.62482720304
8958.751767954465
6463.149674915868
4849.291427148284
3746.604040505803
2957.247325362351
2369.836628224989
1919.742446103897
1568.368401881402
1291.352331190214
1071.935986643349
897.5938177312464
758.5110940916214
646.9119416954693
556.685699589297
483.0914316979909
422.4887525721774
372.0981355885118
329.7992581482478
293.9701542816545
263.3633217488651
237.0123485026611
214.1623840097332
194.2186273367872
176.7081731656731
161.2516680945549
147.5421473786645
135.329131385144
124.4065877398253
114.6037496849756
105.7780575623493
97.80969009163381
90.59729427201769
84.05462625315413
78.10788949716517
72.69361080699329
67.75693434508872
63.25024278306602
59.13203637550704
55.36601681530472
51.92033482479472
48.7669696076949
45.88121527632639
43.24125472370643
40.8278055595115
38.62382600440448
36.61427115648748
34.78589210013191
33.12707193539202
31.6276942008904
30.27904017357496
29.07371253503539
28.00558362491265
27.06976720432111
26.2626132104044
25.58172550216528
25.0260029932023
24.59570490560568
24.29254109480377
24.11978850484039
24.08243470914818
24.18734905979559
24.44348068324267
24.86207914202717
25.45692482150632
26.24453479218725
27.24425427564689
28.47669048441706
29.96447357250414
31.74187258217975
33.75882899424766
35.73205881916043
37.26303637740834
38.13376271830027
38.31525288978091
37.7734187882747
36.35415079965696
33.65230795885594
28.80200668834373
21.3152609848669
13.83179900131252
9.150122272846771
6.482425591910845
4.771608704161875
3.635106247272095
2.879924959690807
2.388173322063603
2.086311612974145
1.9093626462736
1.802972911908161
1.732701372052848
1.680725744910443
1.639446258990638
1.605805996526101
1.582199597317989
1.602916378891706
1.964259161229698
3.597002485083033
6.444582181854011
9.639037016269137
13.20081368225137
18.85866393149529
39.13563974513029
1165102.280618497
215568.6190521454
75377.34054802966
36088.75121167475
20584.94977072275
13089.41435335538
8957.00971336108
6460.801147274214
4846.301057879039
3742.999452244066
2953.140185131148
2365.425776744751
1915.284863122221
1564.122752697266
1287.521768247105
1068.637219490732
894.8591415874455
756.3112734380345
645.1836732019633
555.3535298918173
482.0815136113791
421.7355988999319
371.5466764679708
329.4046740724031
293.6966916955361
263.1827979564289
236.9027025662
214.1064146102374
194.2029517140352
176.7223937971859
161.2877166228199
147.5937727267804
135.3915019454493
124.4759827623487
114.6773193913523
105.8536366234633
97.88565191235078
90.67243703539813
84.12808335714286
78.17905900389486
72.7620997034883
67.82251438087927
63.31281540560909
59.19160487676839
55.4226641757699
51.97420612441765
48.81825810518518
45.93015145710618
43.28809774929261
40.87283673092628
38.66734386135595
36.65658797264287
34.82733155294145
33.16796781502926
31.6683899832505
30.31988938222649
29.11507976865397
28.04784613961772
27.1133169136331
26.30785891276945
25.62909503617057
25.0759448979694
24.64868890173314
24.34905636219601
24.18033818729157
24.14752428895172
24.25746509426069
24.51905475204395
24.94342957658736
25.54416566508664
26.33743677876172
27.34202687409165
28.57773719450635
30.06630928856562
31.83922043093249
33.83961284063965
35.77790450710859
37.2616569263457
38.08170242587331
38.21145500375413
37.61775672372541
36.1459379024953
33.40539807932017
28.5610698558621
21.14497045718671
13.73419047118468
9.088774149924349
6.443917669388118
4.748065756973306
3.620846686619116
2.871417119599687
2.383243933211181
2.083455278913693
1.907580148434793
1.801704798423467
1.731681387527355
1.679837462533857
1.638639047454308
1.605065984918019
1.581645176859907
1.6035287984358
1.970115826340207
3.61093472706532
6.458478880692433
9.644521566665954
13.19324244017182
18.8414336344669
39.12339294183788
1165102.291757957
215568.5370384726
75377.10369247236
36088.25984711802
20584.09521198282
13088.08903905211
8955.117409734088
6458.270760745941
4843.105514804401
3739.178492402126
2948.819526807466
2360.817437852984
1910.655338424807
1559.734996402345
1283.578245211019
1065.250657447784
892.0566167310923
754.0586190841994
643.4136549311041
553.987872453733
481.0443422954731
420.9598913854282
370.9762883871222
328.9940351358609
293.4095071456238
262.9904814584793
236.7828819011155
214.0416414794226
194.1796428961136
176.7299860769292
161.3180027936993
147.6403841417355
135.4495067339404
124.5415740447265
114.7475731958686
105.9263233505561
97.95908923254464
90.74537460100234
84.19961226321333
78.2485403590061
72.82910817969754
67.88679341408701
63.37424163069036
59.25015980111181
55.4784116523936
52.02727442655913
48.86882572266185
45.97843588523383
43.33434674180933
40.91732155364303
38.71035423601332
36.69842841798628
34.86831893206245
33.20842990412147
31.70866494335296
30.36032600256008
29.15603837419183
28.08970006158035
27.15645435463208
26.35268501783504
25.67603388136186
25.12544093075666
24.70120715948364
24.40508041706863
24.24036423192503
24.21204898796482
24.32696367663247
24.59394417934119
25.02400928247797
25.63052485931743
26.42931081547535
27.4385332939788
28.67717374310204
30.16652636650632
31.93472334676281
33.91767359184838
35.82063644345229
37.25717976155772
38.02494519152945
38.10468852746551
37.45917180581223
35.93503593528165
33.15664579373279
28.31880401567659
20.97308686370076
13.63561783726496
9.026970818023999
6.40509746154676
4.724314331328465
3.606455124657747
2.862827381439353
2.378265125050373
2.080568312117247
1.905776404686658
1.800420002215892
1.730647182050782
1.678936514327284
1.637820375004111
1.604316150957116
1.58108697454441
1.604162875038022
1.976073661302364
3.625004969839348
6.472387548504947
9.649811601145554
13.18534548124114
18.82331859447724
39.11097973046807
1165102.307021086
215568.4458641318
75376.84014283576
36087.71559307094
20583.15492877
13086.64133665784
8953.065922804501
6455.548592106479
4839.694320484893
3735.130582829979
2944.27511616497
2356.002104111906
1905.845386854573
1555.19783043042
1279.51566437433
1061.771320652861
889.1822298512874
751.7498955706111
641.5992141773665
552.5863738179634
479.9777461669506
420.1596683888479
370.3852367196334
328.5658258442289
293.1072850854339
262.7852333131445
236.6519010359231
213.9672113863687
194.1479610626189
176.7303073407639
161.3419672921765
147.6814939690222
135.5027198798232
124.6029892579232
114.814185274865
105.9958325842008
98.0297525246782
90.81588887716204
84.26902270085624
78.3161680548362
72.89449283400721
67.94964788255297
63.43441574492341
59.30761156846458
55.53318427999837
52.07947805076706
48.9186228711809
46.02603000590032
43.37997321277437
40.9612407393983
38.75284623951712
36.7397892748247
34.90885800838974
33.24846834026238
31.7485350025893
30.40037119879344
29.19661427538572
28.13117562873861
27.19921368485118
26.39712927275127
25.72258309558631
25.17453524560752
24.75330677754828
24.46066321837336
24.29991944710982
24.27606454588239
24.39590371064017
24.66821159662454
25.10388615029802
25.71608043257181
26.52026268512365
27.53385445230211
28.77514612222268
30.26505052633464
32.0282213539231
33.99294847539659
35.86014488926598
37.24927877130808
37.96556699492839
37.99484245708882
37.29728289475737
35.72109610613538
32.90579167107204
28.07497349295361
20.79947182866169
13.53599036407248
8.964657553768324
6.36593153037834
4.700333921637098
3.591919115521252
2.854148372651802
2.373232629384473
2.077648167392012
1.903949741123118
1.799117285283764
1.729597754022935
1.678022048373151
1.636989504321313
1.603555885125582
1.580524671813443
1.604819267911499
1.982136063816792
3.639217003701986
6.486305365066505
9.654904349560203
13.17689442787749
18.80520871902475
39.0984043180019
1165102.324168553
215568.3458240141
75376.5503630922
36087.11913283625
20582.12946110212
13085.07123295411
8950.854252320672
6452.632324807124
4836.063701238664
3730.850585702385
2939.500778573729
2350.973059447339
1900.848269578726
1550.504913953748
1275.328338711992
1058.194282613596
886.2318197339023
749.3816560432971
639.7375394291145
551.1467691460647
478.8799195880745
419.333502675178
369.772401485425
328.1191730084595
292.7893487612407
262.5665324694588
236.5093616513024
213.8828223351175
194.1076795264381
176.7231895573529
161.3594874711706
147.7170145353197
135.5510803729948
124.6601875697379
114.8771299006237
106.0621496851253
98.09763520010806
90.88397893112933
84.33631763954691
78.38194761901281
72.95826080755188
68.01108587266195
63.49334635935081
59.36396905654451
55.58699111418937
52.13082622273144
48.96765904176614
46.07294371800757
43.4249876560504
41.00460557859068
38.79483218430877
36.78068409222689
34.94896377541909
33.28809975303372
31.78801859376441
30.4400453529021
29.2368299049964
28.17229739909956
27.24162162259188
26.44122054245112
25.76877363291425
25.22326077372076
24.80502248965746
24.51584104482751
24.35904129194061
24.33960909864866
24.46432339670979
24.74189495302944
25.18310004741202
25.80088917622846
26.61044161102067
27.62800254119055
28.87169555073824
30.36187066516644
32.11959714210741
34.06534953514984
35.89631824321845
37.23792302241643
37.90316510778888
37.88169918760834
37.13178248824989
35.50398513499011
32.65254507639814
27.82934312198736
20.62399265028194
13.43522059801702
8.901781815684251
6.326387620304769
4.676104644710875
3.577226521809465
2.845372874690959
2.368142242904938
2.074692313025326
1.902098478311126
1.797795395195773
1.728532085131074
1.677093196112629
1.636145682828456
1.602784566088747
1.579957947609033
1.605498650834943
1.988306449953045
3.653574450661606
6.500230519625457
9.659799973615014
13.16804982600993
18.7871169963661
39.08565514255157
1165102.344039216
215568.2361510687
75376.23250436137
36086.46723635294
20581.01387799313
13083.3720188705
8948.473985405548
6449.51204706031
4832.202605354215
3726.32681764082
2934.484795130624
2345.71914385072
1895.653867853694
1545.647445036675
1271.008842800505
1054.51340016121
883.2003603296138
746.9498124264787
637.8253147524546
549.6663706813478
477.7486818586775
418.4796209305751
369.1363359575026
327.65289159733
292.4547233999494
262.3335732828657
236.3545948093135
213.7879163255284
194.0583307702909
176.708239275236
161.3702308575809
147.7466637541774
135.5943480430742
124.7129637761975
114.9362311849369
106.1251234977722
98.16260704656003
90.94953239333978
84.40139997328379
78.44579508681231
73.02033952472034
68.07104472776041
63.55097952132154
59.41918601578598
55.63979274540547
52.18128568395541
49.01590652151246
46.11915436615394
43.46937205374856
41.04740234126725
38.83630232171192
36.82110684391994
34.98863369834356
33.32732488633524
31.82711954820665
30.47935518732141
29.27669468684277
28.21307729349586
27.28369236097895
26.48497503718473
25.81462341957277
25.27163678126017
24.85637441261296
24.57063419974724
24.41774929341742
24.40269990210147
24.53223512321047
24.8149963590129
25.26162814973886
25.8848510477637
26.69944240688123
27.7208953775507
28.96680562598438
30.45697557255093
32.20877401820786
34.13479418115812
35.92905878718172
37.22302657340066
37.8375002779546
37.76499112331499
36.96234459464859
35.28331954698361
32.39668231404527
27.58170762780114
20.44652299696163
13.33322463536563
8.838293300018609
6.286434742853163
4.651607244759878
3.562365534689199
2.836493825116825
2.362989826802444
2.071698233803597
1.900220928943157
1.796453063254018
1.727449138610653
1.676149070722308
1.635288141242435
1.60200155947936
1.579386477206585
1.606201710149525
1.994588249081507
3.668080765041978
6.514161705768457
9.664519190465253
13.15897751790153
18.76905065157651
39.07270968871934
1165102.365436566
215568.1165393341
75375.88603348064
36085.75860720786
20579.80590257949
13081.54013518417
8945.920073598931
6446.181193345886
4828.103135911372
3721.550441458705
2929.217956214369
2340.231387654218
1890.253955034877
1540.618236393073
1266.551106486068
1050.723651589241
880.0837457198633
744.4510306552936
635.8598469493264
548.1430111421356
476.5822941715487
417.5966313067471
368.4759276537211
327.1660934583053
292.1027004048474
262.0857909511396
236.1871506209946
213.6821353400299
193.9996300992833
176.6852303512634
161.3740180098534
147.7702993132976
135.6324100547475
124.7612283497105
114.9914179699349
106.1846972687195
98.22462250377293
91.01251239138618
84.46423948724163
78.50768533048932
73.0807077015556
68.12950607294746
63.60729904576067
59.47324792652484
55.69157596914776
52.2308442870098
49.06335410088798
46.16465161092319
43.51311693943159
41.08962248358088
38.87724910687197
36.86105107701462
35.02786252052534
33.36613977743202
31.86583527042658
30.51829953364676
29.31620889200471
28.25351699096085
27.3254288884149
26.52839688048852
25.86013743039375
25.31966868251146
24.90736781214333
24.62504696062546
24.47604553730253
24.46533506710152
24.59963027873543
24.88749616215546
25.33943402422221
25.96791663883804
26.78731439921331
27.81253875821309
29.06046432995853
30.55033114257428
32.29567205533912
34.20119154966277
35.95825505472104
37.20438469617854
37.76825304214942
37.64410705561526
36.78794914779785
35.05853804985151
32.13805013657412
27.33186432309247
20.26694369821261
13.22992239293476
8.774144071001283
6.246043202409748
4.626823134516149
3.547324677380134
2.8275043260884
2.357771308417015
2.068663431458337
1.89831539664033
1.795089002767962
1.726347857473809
1.675188765464015
1.634416092100565
1.601206216634986
1.578809930942151
1.606929142493169
2.000984897236514
3.682739179246978
6.528095642138569
9.669086287666618
13.14994496503425
18.75307881493849
39.05944601934525
1165102.388458292
215567.9863330748
75375.50941836459
36084.9904226589
20578.5010507538
13079.56927255178
8943.184381653438
6442.62999039699
4823.754273028559
3716.509794523609
2923.688661627521
2334.498931806183
1884.63891518211
1535.409141947802
1261.948431480017
1046.819614025414
876.8776094488983
741.8817973552341
633.8383038424754
546.5744027850545
475.3789037698696
416.6830286981545
367.7899500290442
326.6577754646451
291.7324565021552
261.8225072081568
236.0064682463554
213.5650138323984
193.9311896276298
176.6538383244767
161.3705763460435
147.7876912694245
135.6650714777778
124.8048152245152
115.0425479965925
106.2407483863297
98.2835752538452
91.07282607202714
84.5247545351186
78.56754604059667
73.13930082529201
68.18641195120414
63.66225253847078
59.52610713920463
55.74229723249272
52.27946208834766
49.10996503893376
46.20940161534683
43.55619116034611
41.13123736031956
38.91764628387351
36.90049283117592
35.06662849502624
33.40452482241024
31.9041482257841
30.55686282399076
29.35535879597165
28.29360443451029
27.36682059151475
26.57147659728884
25.9053069429959
25.36734801082451
24.95799384551467
24.6790693272112
24.53391791906454
24.5274993245567
24.6664895219565
24.95937121974214
25.41649567074884
26.05008420454116
26.87411281074319
27.90294001475964
29.15264970241226
30.64187816590186
32.38019056243128
34.26441777909841
35.98374487083087
37.18149648655543
37.69495042161013
37.51813733800869
36.60931472566732
34.82996447952757
31.87615034185124
27.07961915830305
20.08514316127305
13.12523791905374
8.709288663292698
6.20518467133043
4.601734438361841
3.532092831957875
2.81839765277751
2.35248268550784
2.065585417496696
1.896380174842645
1.793701907335294
1.725227162815631
1.674211352056029
1.633528728280404
1.600397873322168
1.578227972840761
1.607681652181478
2.007499830372493
3.697552736568403
6.54203132831171
9.673563459919492
13.14036448244695
18.7376595465039
39.04617764859741
1165102.411902371
215567.8451815669
75375.10155050004
36084.16047975727
20577.09571374853
13077.45417300754
8940.259915548155
6438.849824944489
4819.146146286757
3711.194318202135
2917.886377618006
2328.511950867935
1878.800119055504
1530.012932724288
1257.194939238767
1042.796570719536
873.5781773487729
739.2390853127481
631.7582504650434
544.9585813942811
474.1369225362928
415.7375265670477
367.0773586172706
326.1270879651687
291.343298859633
261.5431557545612
235.8120835668928
213.4361703202477
193.8526947222453
176.6138026429671
161.359689107172
147.7986582184602
135.6921794697449
124.8435945524944
115.0895098836357
106.2931802701136
98.33938050007502
91.13039803642872
84.58287716219026
78.62531513202347
73.19606148578038
68.24170866489645
63.71578926484861
59.57771536272817
55.79191029260831
52.32709462268841
49.15569648854057
46.25336307433194
43.59855491955323
41.172208716837
38.95745718168833
36.9393970814985
35.10489831090506
33.44244846894616
31.94202864503483
30.59501706095838
29.39411811152248
28.33331493434006
27.40784419283537
26.61419207195653
25.95011067517243
25.41465391341883
25.00823163769377
24.73267994007406
24.59134423468715
24.58916960833133
24.73278975832127
25.030601085284
25.49280120974701
26.13135886061568
26.95985401069149
27.9920876367007
29.24331814374875
30.73153096411055
32.46220739400361
34.32429913050932
36.00536361497152
37.15351358042116
37.61725932690683
37.38787144095594
36.42612697612655
34.59728482750692
31.61096883963699
26.82480160004208
19.901017839431
13.01909974015878
8.643684217519803
6.163832284318182
4.576324015876098
3.516659262785744
2.809167262003571
2.347120027413412
2.062461720780448
1.894413545205615
1.792290449255854
1.724085952094199
1.673215879001414
1.63262522147371
1.599575848393515
1.577640259087914
1.608459948223808
2.014136477047507
3.712524297676098
6.555968381890412
9.677984646397778
13.13023813809227
18.72184822540796
39.03295061620751
1165102.435569686
215567.69244921
75374.66098958251
36083.26606018956
20575.58548303323
13075.18853721244
8937.138455874856
6434.83075296629
4814.267531524318
3705.592189804543
2911.799476828206
2322.259758314561
1872.72832411785
1524.421983722085
1252.284519525618
1038.649680140363
870.1816098209767
736.5198308935044
629.6172241522756
543.293554371116
472.8547289698763
414.7587984499793
366.3370629549364
325.5731300709635
290.9344795747266
261.2471125781998
235.6034731839002
213.2951633926062
193.7637708902935
176.5648035918592
161.3410814392776
147.8029621132795
135.7135262071066
124.8773833270172
115.1321410398609
106.3418471091157
98.39190627959353
91.18510774462798
84.6384962920344
78.68088944306263
73.25089315377043
68.2953053226105
63.76782321942929
59.6279908673481
55.84033726796068
52.37366753449916
49.20047741031689
46.2964681146011
43.64014344382268
41.21247481989502
38.99662309560571
36.97770814096648
35.14261927344707
33.47986098709731
31.97942969172525
30.63271820194409
29.43244543967029
28.37260953483882
27.44846292823635
26.65650843290548
25.99451530739869
25.46155428168069
25.05804998207265
24.78584831271597
24.64829481531014
24.65031769680902
24.7985057568565
25.10116637663204
25.56834109698182
26.21174335601259
27.04453268928964
28.07994606742803
29.33239886764789
30.81918020989806
32.5415998233314
34.38063766079483
36.02268288113652
37.12190322355552
37.5351221542643
37.25302069203212
36.23798717066536
34.35954586522214
31.34241054205607
26.56725420091272
19.71447243751601
12.91144129810785
8.577290668667276
6.121960684536259
4.550575529901971
3.501013633263799
2.799806806336439
2.341679480039514
2.059289884019202
1.892413776765015
1.790853277957869
1.722923097414947
1.672201369894476
1.631704720632826
1.598739442410105
1.577046436374184
1.609264740945116
2.02089825052422
3.727656522415706
6.569906931906743
9.682367649393942
13.11983849249371
18.70563355368882
39.01986253650596
1165102.459193763
215567.5275947571
75374.18640660097
36082.30448215661
20573.96609085839
13072.76629113376
8933.81211109463
6430.563274109119
4809.10777696995
3699.692284674293
2905.417157451894
2315.732587695908
1866.415252410391
1518.629618314571
1247.211936822404
1034.374867377834
866.6847139093378
733.7215011626134
627.4131911693988
541.5776723896815
471.5309747898465
413.7457348666401
365.5681445882416
324.9951370297917
290.5053580868922
260.9338377288184
235.3801788701914
213.1416012346787
193.6640804052516
176.5065474545105
161.3144954667331
147.8003742560148
135.7289066943121
124.9059958641687
115.1702714661239
106.3865917074364
98.44100585176942
91.23681706387401
84.69148095997738
78.734144040408
73.30367609504282
68.34708678979756
63.81824343449699
59.67682658893438
55.88747484741369
52.41908122673188
49.24421192534201
46.33862464887277
43.68086850606537
41.25195141701295
39.03506381972191
37.01534990894264
35.17971941907297
33.51669451504652
32.01628753806168
30.66990630796319
29.47028453381959
28.41143542421594
27.48862711573584