/*--------------------------------*- C++ -*----------------------------------*\
| =========                 |                                                 |
| \\      /  F ield         | OpenFOAM: The Open Source CFD Toolbox           |
|  \\    /   O peration     | Version:  v1812                                 |
|   \\  /    A nd           | Web:      www.OpenFOAM.com                      |
|    \\/     M anipulation  |                                                 |
\*---------------------------------------------------------------------------*/
FoamFile
{
    version     2.0;
    format      ascii;
    class       volScalarField;
    location    "1000";
    object      p;
}
// * * * * * * * * * * * * * * * * * * * * * * * * * * * * * * * * * * * * * //

dimensions      [0 2 -2 0 0 0 0];


internalField   nonuniform List<scalar> 
10965
(
-0.1219154337050141
-0.1189617169429031
-0.1157846705503886
-0.1126918301999362
-0.1095476754373002
-0.1063811485646777
-0.1032539466438426
-0.1002100434503658
-0.09729576253713237
-0.09451362852551347
-0.09186000077424798
-0.08936490560541875
-0.08699051818506526
-0.08481863253169533
-0.08274305149950964
-0.08093295622297274
-0.0791730710982156
-0.07779114294992515
-0.07639379587835037
-0.07555001028482133
-0.07458355275572484
-0.07435581934185763
-0.07422383854212865
-0.07496902354843556
-0.07651140894669189
-0.08163894741719784
-0.1282496968306246
-0.1266312048703807
-0.124845813935034
-0.1229463573745905
-0.1206177360528422
-0.1176894803435365
-0.1145442849018779
-0.1114930802920164
-0.1083848889187613
-0.105256267991931
-0.1021684614412411
-0.0991659478592242
-0.09629168064439309
-0.09354883153284672
-0.09093392407493064
-0.08847684303035362
-0.08614039766847394
-0.08400505524526906
-0.08196593908855179
-0.08019018308444373
-0.07846454985739983
-0.0771141899492294
-0.07574779066754196
-0.07493358552315969
-0.07399474647035482
-0.07380182515185017
-0.07371908998893643
-0.07449292791027201
-0.07628743775834509
-0.0814821880768387
-0.1284216560756838
-0.1269604028009457
-0.1253317197892191
-0.1235464718282425
-0.1216366702241318
-0.1193191842689292
-0.1164178433049074
-0.1133077503463132
-0.1102907117839633
-0.1072138887597286
-0.1041233235451204
-0.1010755481264922
-0.09811463882435621
-0.09528058088984319
-0.09257754813982989
-0.09000209607061727
-0.08758372847695443
-0.08528575011304469
-0.08318733045492099
-0.08118494184181077
-0.0794436613954858
-0.07775231003483854
-0.07643342761919472
-0.07509771707228032
-0.07431284544708804
-0.07340084999007589
-0.07324342294893432
-0.07320833346369399
-0.07401320633856023
-0.0760736632505573
-0.08135454666034571
-0.1284302369990737
-0.1271509404905239
-0.1256841564235987
-0.124048023412697
-0.1222635023221649
-0.1203433047876294
-0.1180281016222715
-0.1151551270324517
-0.1120751821121394
-0.10908396089772
-0.1060355475815727
-0.1029829580363417
-0.09997501771511753
-0.09705556130574926
-0.09426198751662555
-0.09159945077745345
-0.0890642277579788
-0.08668523737988797
-0.08442622905153438
-0.08236509792811474
-0.08039970896071216
-0.07869303559107864
-0.07703601768294123
-0.07574851075869643
-0.0744432572408428
-0.07368748014149185
-0.07280149562282855
-0.07268011630898123
-0.07269076027492263
-0.07352958047562894
-0.07587141155960726
-0.08124856356702539
-0.1282501341503347
-0.1271363827733903
-0.1258451542688812
-0.1243708903684327
-0.1227307625302746
-0.1209416806014629
-0.1190153206823597
-0.1166998849972738
-0.1138624525445412
-0.110818716633113
-0.1078592573241435
-0.104843563624369
-0.1018311715758634
-0.09886472004308501
-0.0959881567608882
-0.09323618412058692
-0.09061494307554055
-0.0881205397902393
-0.08578141006153919
-0.08356178674063787
-0.08153824551572866
-0.07961009517677425
-0.07793811012322933
-0.07631546740824138
-0.07505918687876778
-0.07378417259864606
-0.0730572544521121
-0.07219645924624027
-0.07211174864818573
-0.07216607607326879
-0.07304223869205793
-0.07568169460449348
-0.08115155106028293
-0.1279001245066121
-0.1269468335620951
-0.1258186092521868
-0.1245150189859118
-0.1230317781378467
-0.1213867806661353
-0.1195928880544557
-0.1176623910172513
-0.1153458838674664
-0.1125442208109087
-0.1095389590494995
-0.1066163273316856
-0.1036373743443659
-0.1006671205531807
-0.09774371780181368
-0.09491148410556005
-0.09220229360582793
-0.08962321961866446
-0.08717028342210785
-0.08487154441879152
-0.08269177183381293
-0.08070616971364387
-0.07881554834485271
-0.07717837500872764
-0.07559019780345994
-0.07436502255408449
-0.07312007226012522
-0.07242178928002087
-0.07158533919322796
-0.07153792699832268
-0.07163361527736106
-0.07255114071774314
-0.07550536783591516
-0.08106436832056696
-0.1274611242275168
-0.1265950293103684
-0.1256238132874529
-0.1244817692169828
-0.1231670839540869
-0.1216763289672579
-0.1200251319170103
-0.1182261860591842
-0.1162928520503524
-0.1139811144310796
-0.1112107405540443
-0.1082432267067225
-0.1053583492300001
-0.1024177008566942
-0.099490612148049
-0.09661123148142466
-0.09382429577606184
-0.0911588711094958
-0.08862288366422054
-0.08621221245155
-0.08395454184466955
-0.08181520325373744
-0.07986799501102022
-0.07801528714839621
-0.07641313951129687
-0.07485959588565806
-0.07366547304536747
-0.07245046807203283
-0.071780618519678
-0.07096766085391613
-0.07095820928826468
-0.07109264078209122
-0.07205623094389409
-0.07534338551421005
-0.08099152169540913
-0.1328673985913124
-0.1328640013831531
-0.1328605343509265
-0.1328572048757541
-0.1328538475084896
-0.132850378419879
-0.1328467729546071
-0.1328430123035569
-0.1328390733092324
-0.1328349318181344
-0.1328305650330148
-0.1328259520050617
-0.1328210733833272
-0.1328159108335881
-0.1328104461077771
-0.1328046593014415
-0.132798528464081
-0.1261525609362077
-0.1252674810375067
-0.124278754982191
-0.1231237092429952
-0.1217989776324515
-0.1203013598429681
-0.1186438369707001
-0.1168398066869303
-0.1149002155669
-0.1126012202781489
-0.1098614994264027
-0.1069320959032465
-0.104085130268952
-0.10118367234109
-0.09830059407849316
-0.09546612737214751
-0.09272538028173576
-0.09010469120757271
-0.08761277327112646
-0.0852452704016449
-0.08302945296996346
-0.08093122436024178
-0.07902295151933265
-0.07720861957652757
-0.07564178575868395
-0.07412310782409653
-0.07296003803951885
-0.07177490625738565
-0.07113330125003241
-0.07034298357482568
-0.07037219186735313
-0.07054242953771434
-0.07155751054682491
-0.07519688970114098
-0.08093595494444049
-0.1316889892674306
-0.131685515869341
-0.1316819715832542
-0.131678567889572
-0.1316751354947743
-0.1316715887203772
-0.1316679024179922
-0.1316640574519441
-0.1316600303117201
-0.1316557965478212
-0.1316513331416898
-0.1316466189584174
-0.1316416344382343
-0.1316363609702772
-0.1316307801250595
-0.1316248728395107
-0.1316186178359498
-0.1316119917269713
-0.1248186202002956
-0.1239155190328139
-0.1229094128903943
-0.121741673003506
-0.1204070141303804
-0.1189008295029384
-0.1172386929807275
-0.1154317058306028
-0.1134841360734784
-0.1111974339577602
-0.1084923385104745
-0.1056024154781431
-0.1027943514095524
-0.09993345615159599
-0.0970955082701033
-0.09430708137994466
-0.09161360711883819
-0.08903875875557826
-0.08659197934221852
-0.08426861613298357
-0.08209550192210954
-0.08003912412991622
-0.07817039152453159
-0.07639495717008991
-0.07486377860857023
-0.07338024795191525
-0.07224826609407477
-0.0710929725288362
-0.07047942251257037
-0.0697108866242248
-0.06977946779761111
-0.06998221505525863
-0.07105501482331177
-0.075067188065014
-0.08089987044171711
-0.1304719045807018
-0.1304683486071489
-0.1304647202438925
-0.130461235795786
-0.1304577218984588
-0.130454090859756
-0.1304503169914437
-0.1304463808166886
-0.1304422584783249
-0.1304379253067603
-0.1304333582737453
-0.1304285364689362
-0.1304234407528778
-0.1304180530068343
-0.130412355107731
-0.1304063278651443
-0.1303999499837672
-0.1303931960398641
-0.130386038438388
-0.124221403840738
-0.1234572989367119
-0.1225375547645468
-0.1215139009638184
-0.1203330026104372
-0.1189873807475557
-0.1174731635327749
-0.1158064689897039
-0.1139984177407639
-0.1120476563440484
-0.1097699843602377
-0.1071012531952043
-0.1042517237793576
-0.1014839804874102
-0.09866535856465751
-0.0958738713050479
-0.09313280724737247
-0.09048786426351084
-0.08796009510594721
-0.08555961363303223
-0.08328143110287267
-0.08115193371332616
-0.07913821047184166
-0.07730968346973881
-0.07557372552885935
-0.07407859345241651
-0.07263053899541023
-0.07152970916848721
-0.07040425439231929
-0.06981856024269589
-0.06907093598704371
-0.06917959225745163
-0.06941115202757088
-0.07054881323787847
-0.07495574739107211
-0.08088569294825498
-0.1292247972331041
-0.1292211674147786
-0.1292174639918155
-0.1292139074514551
-0.129210320761376
-0.1292066144363116
-0.129202762311221
-0.1291987446140054
-0.1291945371933947
-0.1291901151846651
-0.1291854555285303
-0.1291805374455017
-0.129175342048365
-0.1291698515278102
-0.1291640480331186
-0.1291579124140776
-0.1291514230221509
-0.129144554816484
-0.1291372790567076
-0.1291295636945013
-0.1291213727123525
-0.1291126661346741
-0.1291034011296628
-0.1290935318559383
-0.1290830093468683
-0.1290717814579522
-0.1290597927435493
-0.1290469842701686
-0.1290332933801894
-0.1290186534194737
-0.1290029934179944
-0.1289862377198256
-0.1289683055722442
-0.1289491106486607
-0.128928560491355
-0.1289065558643485
-0.1288829899936233
-0.1288577476634047
-0.1288307041444821
-0.1288017239110065
-0.128770659093924
-0.1287373476263002
-0.1287016110200513
-0.128663251681292
-0.1286220496877923
-0.1285777589278661
-0.1285301024899334
-0.1284787671725411
-0.1284233969675668
-0.1283635853817288
-0.1282988664274979
-0.1282287041240298
-0.1281524803694685
-0.128069481066458
-0.1279788804390434
-0.1278797235531118
-0.1277709071502106
-0.1276511589781014
-0.1275190158912917
-0.1273728009561579
-0.1272105997343469
-0.1270302355766487
-0.1268292433238091
-0.1266048398906607
-0.1263538888104342
-0.1260728538467977
-0.1257577355442091
-0.1254039825359843
-0.1250063426817269
-0.1245585510321744
-0.1240531376556685
-0.1234834804900638
-0.1228420675175302
-0.1220665500455149
-0.1211319813973169
-0.1200899756131984
-0.1188952202577066
-0.1175385528743338
-0.1160183664275368
-0.1143464724457002
-0.1125365532117968
-0.1105884099598015
-0.1083209907544565
-0.1056871457202277
-0.1028786488945869
-0.1001526452708689
-0.09737799648290869
-0.09463436413056438
-0.09194208605041747
-0.0893470265920792
-0.08686766584568242
-0.0845147269040042
-0.08228284710139586
-0.08019795521370778
-0.07822776058759759
-0.0764401705439586
-0.07474432914957455
-0.07328568812273152
-0.07187348844027813
-0.07080390505344183
-0.06970832615187732
-0.06915027287622898
-0.06842267695224284
-0.06857207775398826
-0.06882831177322005
-0.07003902086580864
-0.07486421661169926
-0.08089606990916032
-0.1279399900396576
-0.1279362846716262
-0.127932504355461
-0.1279288739724046
-0.1279252127636537
-0.1279214294029613
-0.127917497228153
-0.127913396147496
-0.1279091016799566
-0.1279045887212658
-0.1278998341290369
-0.1278948172036625
-0.1278895192653317
-0.1278839227637444
-0.1278780100854007
-0.1278717622293097
-0.1278651575736618
-0.1278581709709539
-0.1278507732991355
-0.1278429315130435
-0.127834609246705
-0.12782576687669
-0.1278163612455516
-0.1278063459559199
-0.1277956715227572
-0.1277842853226216
-0.1277721314409389
-0.1277591504714642
-0.1277452792764965
-0.1277304507127814
-0.1277145933096254
-0.1276976308891885
-0.1276794821482147
-0.1276600601726581
-0.127639271868595
-0.127617017293135
-0.1275931888774496
-0.1275676704951239
-0.1275403363483931
-0.1275110496409924
-0.127479660970976
-0.1274460063901518
-0.1274099050721702
-0.127371156496634
-0.1273295370477497
-0.1272847959370526
-0.1272366503218649
-0.1271847794839936
-0.1271288179378485
-0.1270683473288352
-0.1270028869704621
-0.1269318828991305
-0.126854695344193
-0.1267705845366361
-0.1266786948141438
-0.1265780370457759
-0.1264674694383289
-0.1263456768765117
-0.1262111489557478
-0.1260621569477406
-0.1258967298720727
-0.1257126296378226
-0.125507324791869
-0.1252779616073567
-0.125021329693543
-0.124733817502624
-0.1244113514286171
-0.1240493089058231
-0.1236423693123462
-0.1231842230704132
-0.1226674370553494
-0.1220850420943083
-0.1214271378408923
-0.1206433160835151
-0.1196972980518672
-0.118634970221809
-0.117426153193275
-0.1160601352867843
-0.1145345049016945
-0.1128583379114953
-0.111045155971233
-0.1090998549250373
-0.1068485507289783
-0.1042481302159412
-0.1014818985266759
-0.09879905795848754
-0.09607002965066914
-0.09337569472039035
-0.09073370812192925
-0.08818995991684059
-0.08576041667965288
-0.08345634882218361
-0.08127197867160041
-0.07923276012884037
-0.07730704127536919
-0.07556118759008267
-0.07390616551740489
-0.07248451425039944
-0.07110859764783392
-0.07007038420722848
-0.06900475423231837
-0.06847410333427667
-0.06776563917443326
-0.0679563944638344
-0.06823267913862516
-0.06952579328177814
-0.07479447027950277
-0.08093371855128181
-0.1266190486305801
-0.1266152713452547
-0.1266114178660128
-0.1266077172195994
-0.1266039850929954
-0.1266001284111473
-0.1265961200459247
-0.1265919396159796
-0.1265875623459889
-0.1265829629376837
-0.1265781182219319
-0.126573007640687
-0.1265676127837073
-0.1265619164229113
-0.1265559012401913
-0.1265495484354742
-0.1265428364572059
-0.1265357401158849
-0.1265282301855944
-0.1265202734333176
-0.1265118328664589
-0.1265028680248474
-0.1264933352238216
-0.1264831876785065
-0.1264723755124693
-0.1264608456932598
-0.12644854189088
-0.1264354042758582
-0.1264213692742943
-0.126406369282298
-0.1263903323338589
-0.1263731817122626
-0.1263548355133766
-0.1263352061405983
-0.1263141997140855
-0.1262917153725908
-0.1262676444596549
-0.1262418695503736
-0.1262142632844861
-0.1261846869803487
-0.1261529889537811
-0.1261190024933886
-0.12608254343159
-0.1260434072175862
-0.1260013653953504
-0.1259561613888881
-0.1259075054689683
-0.1258550687669596
-0.1257984761958283
-0.1257372981331413
-0.1256710407033627
-0.1255991345185363
-0.1255209217646864
-0.1254356415220322
-0.1253424132843088
-0.125240218713687
-0.1251278817459586
-0.1250040472454123
-0.124867158508898
-0.124715433933503
-0.1245468430976727
-0.124359082275352
-0.1241495489413228
-0.1239153139236547
-0.1236530884713084
-0.1233591815248971
-0.1230294404891972
-0.1226591639634838
-0.1222429508643068
-0.1217744283738751
-0.1212461080653214
-0.1206502128188439
-0.1199738513198334
-0.1191830641153872
-0.1182301680190437
-0.1171458031081407
-0.1159234199352085
-0.1145493638940889
-0.1130181731422139
-0.1113387334956057
-0.1095242568099706
-0.1075788957814704
-0.1053470529025978
-0.1027819809401807
-0.1000599282857836
-0.09742174489726704
-0.09474003014993169
-0.09209653051692432
-0.08950644703792895
-0.08701553182154834
-0.08463730669649072
-0.08238352605596719
-0.08024795617660664
-0.07825555556914676
-0.07637533094878621
-0.07467207937164837
-0.07305864042390206
-0.07167452941847124
-0.07033537178158664
-0.0693286768957783
-0.06829310289744808
-0.0677895825260016
-0.0670993387371068
-0.06733196459205611
-0.06762314152584976
-0.06900933596266381
-0.07474859663215748
-0.08100154572789393
-0.1252575505991223
-0.1252537015170885
-0.1252497749747308
-0.125246004164978
-0.1252422012368761
-0.1252382713703605
-0.1252341869679857
-0.1252299273538078
-0.1252254674527511
-0.1252207817630659
-0.1252158470769603
-0.125210642965465
-0.1252051512681058
-0.1251993550566227
-0.12519323727188
-0.1251867792545451
-0.1251799594375176
-0.125172752461504
-0.1251651288069086
-0.1251570548639387
-0.1251484932249179
-0.125139403006804
-0.1251297401084794
-0.1251194573364803
-0.1251085044166907
-0.1250968279278048
-0.1250843711571105
-0.1250710738970346
-0.12505687219685
-0.1250416980691142
-0.1250254791515249
-0.1250081383185123
-0.1249895932278442
-0.1249697558055769
-0.124948531641852
-0.1249258192726083
-0.1249015093421895
-0.1248754835955755
-0.1248476136781255
-0.1248177596934796
-0.1247857684589537
-0.1247514714051419
-0.1247146820437335
-0.1246751929170458
-0.124632771926566
-0.1245871579268184
-0.1245380554651196
-0.1244851285325332
-0.1244279931602341
-0.124366208738475
-0.1242992679049113
-0.1242265848448042
-0.1241474819198432
-0.1240611745504542
-0.1239667543125951
-0.1238631703125395
-0.1237492089602396
-0.1236234723586589
-0.1234843555781352
-0.1233300231760577
-0.1231583852042916
-0.1229670728268351
-0.1227534131746869
-0.1225144021904368
-0.1222466727691135
-0.1219464534595151
-0.1216095104657996
-0.1212310596288135
-0.1208056138858962
-0.1203267270018497
-0.1197868507957855
-0.1191776263329002
-0.1184839395200986
-0.1176833646194375
-0.1167242276533101
-0.1156193060461538
-0.1143844842648191
-0.1130023840976269
-0.111465737784799
-0.1097845622759536
-0.1079715651892932
-0.1060268748456818
-0.1038132800916608
-0.1012871170104572
-0.09861111645622997
-0.0960191401878342
-0.09338652553933814
-0.09079552000762191
-0.08825907159729908
-0.08582261760385487
-0.0834973117999136
-0.08129532542357809
-0.0792099289197519
-0.07726556475998482
-0.07543192193271006
-0.07377220238409618
-0.07220116941921997
-0.07085519810538736
-0.06955332047727435
-0.06857831329856628
-0.06757293419627221
-0.06709622797781778
-0.06642327601903739
-0.06669815277564112
-0.06699847636655905
-0.06848992892792752
-0.07472885499480972
-0.08110275071086726
-0.1238544053963507
-0.1238504863907669
-0.1238464887021404
-0.1238426495721377
-0.123838777700216
-0.1238347765653296
-0.1238306181181136
-0.1238262813984273
-0.1238217410458317
-0.1238169713774709
-0.1238119491703777
-0.1238066541503735
-0.123801068435306
-0.1237951754239684
-0.1237889583376731
-0.1237823986722305
-0.1237754748536145
-0.1237681613548085
-0.1237604283726776
-0.1237522419387206
-0.1237435642504861
-0.1237343540254882
-0.1237245667681918
-0.1237141549005824
-0.1237030677781898
-0.1236912516187233
-0.1236786493551476
-0.1236652004288549
-0.123650840537488
-0.1236355013336556
-0.1236191100794272
-0.1236015892505225
-0.1235828560749028
-0.1235628219972598
-0.1235413920557311
-0.1235184641503186
-0.1234939281702447
-0.1234676649496848
-0.1234395450243415
-0.1234094271308484
-0.1233771563994024
-0.1233425621729485
-0.1233054553742487
-0.1232656253406059
-0.1232228360120538
-0.1231768213651257
-0.1231272799642381
-0.123073868496701
-0.1230161941197508
-0.1229538054896575
-0.1228861823231039
-0.1228127233220398
-0.1227327323731749
-0.1226454029430094
-0.1225498006455756
-0.1224448440392704
-0.1223292838099822
-0.1222016806160896
-0.1220603819168427
-0.1219034982022395
-0.121728878980074
-0.1215340886565729
-0.1213163820182506
-0.121072678082004
-0.1207995296161538
-0.120493083636728
-0.1201490254665357
-0.1197624923465499
-0.1193279227309559
-0.1188388215349785
-0.1182877011497559
-0.1176662706401151
-0.1169582465712278
-0.1161446581771048
-0.115175549592732
-0.1140532449251411
-0.1128069996179251
-0.1114165657921776
-0.1098754967826565
-0.1081948746402487
-0.106383746949353
-0.1044420674677563
-0.102247732906015
-0.09976237698901298
-0.09713387341932761
-0.09458969787850628
-0.09200805433470298
-0.08947132284086162
-0.08699036104671361
-0.08461010279842536
-0.08233941937463729
-0.08019082622674588
-0.07815705817382149
-0.07626202132650886
-0.07447611566461491
-0.07286092073091595
-0.07133317422668088
-0.07002598862469671
-0.06876195513298222
-0.06781882111955605
-0.06684380581764086
-0.06639354090807842
-0.06573693293653281
-0.06605425547196693
-0.06635733891210276
-0.06796792947638514
-0.0747377459543877
-0.08124064371471693
-0.1224061448780638
-0.122402156551087
-0.122398088320532
-0.1223941814536213
-0.1223902412305102
-0.1223861694460491
-0.1223819376006131
-0.1223775244545996
-0.1223729043690957
-0.1223680514830271
-0.1223629425679404
-0.1223575575194302
-0.1223518787492096
-0.1223458899929074
-0.1223395747547929
-0.1223329146825967
-0.1223258881861995
-0.1223184695571711
-0.1223106286953377
-0.1223023312667383
-0.122293539072831
-0.1222842104359405
-0.1222743004744354
-0.1222637612391658
-0.1222525417337742
-0.1222405878391543
-0.1222278421628998
-0.1222142438311541
-0.1221997282315512
-0.1221842267091551
-0.122167666217357
-0.1221499689101442
-0.1221310516765019
-0.1221108255932969
-0.1220891952838508
-0.1220660581743474
-0.1220413035886171
-0.1220148116783065
-0.1219864521398777
-0.1219560826595132
-0.1219235470446764
-0.1218886729669625
-0.1218512692310876
-0.1218111224856317
-0.1217679932685538
-0.1217216112629496
-0.1216716696364098
-0.1216178183169737
-0.1215596560482238
-0.1214967210782099
-0.1214284803231769
-0.1213543168642136
-0.1212735156836071
-0.1211852475636074
-0.1210885511518218
-0.120982313278057
-0.120865247683253
-0.1207358724685641
-0.1205924866234419
-0.1204331460837905
-0.1202556397146869
-0.1200574654639025
-0.1198358064352859
-0.1195875057888387
-0.1193090379179759
-0.1189964714619855
-0.1186454172732526
-0.1182509472435001
-0.1178074496667342
-0.1173084242048471
-0.1167465722772231
-0.1161140278529647
-0.1153933250129563
-0.1145655212201289
-0.1135835036340624
-0.1124460202404203
-0.1111888630703676
-0.1097906566286289
-0.1082459597061724
-0.10656757091286
-0.104759120909334
-0.1028201443513404
-0.1006493227209133
-0.09820626627497869
-0.09562661636046187
-0.09313189884547236
-0.09060317284181754
-0.08812261705338988
-0.08569911021161557
-0.08337688550875261
-0.08116262845316299
-0.07906911925470655
-0.07708851577416642
-0.07524416786721332
-0.07350722137450509
-0.07193760491311946
-0.07045408160733192
-0.06918637203082598
-0.06796078781398966
-0.06704972442320985
-0.06610526990490972
-0.06568100407514235
-0.06503977087766358
-0.06539948946300396
-0.06569824698348158
-0.06744377750193943
-0.07477809055512044
-0.08141857410935281
-0.1209105629425195
-0.1209065066582949
-0.1209023692806189
-0.1208983960160596
-0.1208943887926167
-0.1208902477543649
-0.1208859439623344
-0.1208814559079264
-0.1208767576859085
-0.1208718232768211
-0.1208666294711764
-0.1208611563592311
-0.1208553866794316
-0.1208493045330024
-0.1208428937273919
-0.1208361360718962
-0.1208290099587553
-0.1208214895021566
-0.1208135443027723
-0.120805139663155
-0.1207962370038206
-0.1207867942657488
-0.1207767661996948
-0.1207661045106613
-0.1207547578753224
-0.1207426718653731
-0.1207297887955688
-0.1207160475103424
-0.1207013831236564
-0.1206857267130005
-0.1206690049598596
-0.1206511397394981
-0.1206320476420398
-0.1206116394171309
-0.1205898193204852
-0.1205664843403782
-0.1205415232735033
-0.1205148156216187
-0.120486230269102
-0.1204556238760103
-0.1204228389390862
-0.1203877014615411
-0.1203500181254992
-0.1203095728782858
-0.1202661228408395
-0.1202193933964015
-0.1201690723243265
-0.1201148028373176
-0.1200561753679664
-0.1199927179403089
-0.119923884969071
-0.1198490443537508
-0.1197674627595143
-0.1196782890233911
-0.1195805356899785
-0.1194730587784481
-0.1193545359803582
-0.1192234436153845
-0.1190780327835617
-0.1189163052123858
-0.1187359892960672
-0.1185345166565736
-0.1183089990839048
-0.1180562049092623
-0.1177725324768291
-0.1174539767566007
-0.1170960830313784
-0.1166938731898054
-0.1162417087292413
-0.1157331198839805
-0.1151610662124999
-0.1145181332882054
-0.1137852861514835
-0.1129425955564645
-0.1119465829799069
-0.1107954709028989
-0.1095278898609503
-0.1081228584554462
-0.1065761938925116
-0.1049013316228703
-0.1030996835824152
-0.1011644580247599
-0.09901537516137325
-0.09661713890549006
-0.09408773802387871
-0.09164421935930271
-0.08917044411772362
-0.08674809738949761
-0.08438413079731333
-0.08212187983835392
-0.07996595448968252
-0.07792931145405869
-0.07600348779635563
-0.07421125866344998
-0.07252455822629419
-0.07100163350599899
-0.06956332464899999
-0.06833582297465021
-0.06714933174307229
-0.06627054365657625
-0.06535687281357491
-0.06495808022537768
-0.06433122876074725
-0.0647329783317966
-0.06501956344147161
-0.06691802205906218
-0.07485301686480307
-0.0816400219644474
-0.119364465708142
-0.1193603424436569
-0.1193561369092347
-0.1193520981979288
-0.1193480249377992
-0.1193438156435845
-0.119339440945797
-0.1193348790737024
-0.1193301038647622
-0.1193250891558533
-0.1193198117746601
-0.119314252029704
-0.1193083930112007
-0.1193022192098381
-0.119295714753723
-0.1192888616168152
-0.1192816381693286
-0.1192740183410315
-0.1192659714306143
-0.1192574623781689
-0.1192484522268857
-0.1192388985494388
-0.1192287557465103
-0.119217975198749
-0.1192065052820375
-0.1191942912874334
-0.1191812752688528
-0.1191673958291202
-0.1191525878552598
-0.1191367822064427
-0.119119905349267
-0.1191018789453223
-0.1190826193627443
-0.1190620371113531
-0.1190400361761572
-0.1190165132210096
-0.1189913566468502
-0.1189644454554795
-0.1189356478869384
-0.1189048197640722
-0.1188718024939256
-0.1188364206569443
-0.1187984790797023
-0.1187577593108337
-0.1187140153802224
-0.1186669687106221
-0.1186163020449796
-0.1185616522363487
-0.1185026017431346
-0.1184386686622451
-0.1183692951427423
-0.1182938340547743
-0.1182115338000627
-0.1181215212117976
-0.1180227825763243
-0.1179141428838105
-0.1177942435474367
-0.1176615189539389
-0.1175141723230906
-0.1173501514585643
-0.1171671249468633
-0.1169624592461013
-0.1167331966829431
-0.1164760335718519
-0.1161872964326712
-0.1158629129827447
-0.1154983724552984
-0.1150886597066639
-0.114628124785037
-0.1141103483840576
-0.1135285712737292
-0.1128757414785197
-0.1121309117134398
-0.1112728473698655
-0.1102625749873784
-0.1090990817671552
-0.1078218667972628
-0.1064112001035388
-0.1048644338746281
-0.1031918048719388
-0.1013992851398497
-0.09947529882187779
-0.09734889306889893
-0.09499335869839259
-0.09251561721834578
-0.09012512225026334
-0.0877084379052667
-0.08534647871433032
-0.08304425514958251
-0.08084402036940663
-0.0787484346815925
-0.07677053100363716
-0.0749011786041866
-0.07316256274576316
-0.07152745780061494
-0.07005239513398835
-0.06866034432801225
-0.06747382074329487
-0.06632710193918095
-0.06548079574710843
-0.06459815491841049
-0.06422421044109614
-0.06361072063877467
-0.06405373630043208
-0.0643194851260438
-0.06639134720744612
-0.07496600759088862
-0.08190845828434366
-0.1177651306042032
-0.117760941688374
-0.1177566693539574
-0.1177525664985155
-0.1177484285150609
-0.1177441523240602
-0.1177397081357766
-0.1177350739255643
-0.1177302232883314
-0.117725129936146
-0.1177197707576903
-0.1177141263155882
-0.1177081800857844
-0.1177019169755614
-0.1176953214547321
-0.1176883756744637
-0.1176810579858859
-0.117673342130519
-0.1176651971072669
-0.1176565875002359
-0.1176474739851609
-0.1176378137859567
-0.1176275609768408
-0.1176166666383829
-0.117605078875214
-0.1175927427345251
-0.1175796000467932
-0.117565589212733
-0.1175506449353094
-0.1175346979024645
-0.1175176744211991
-0.1174994959957943
-0.1174800788337797
-0.117459333269917
-0.1174371630861132
-0.1174134646994064
-0.1173881261946024
-0.1173610261572121
-0.1173320322703558
-0.1173009996146067
-0.1172677686057924
-0.1172321625014959
-0.1171939843833004
-0.1171530135133908
-0.1171090009506142
-0.1170616642874309
-0.1170106813755282
-0.1169556828752916
-0.1168962434641792
-0.1168318715443258
-0.1167619972827602
-0.1166859588657189
-0.1166029868509722
-0.1165121865693725
-0.1164125186260888
-0.1163027776399112
-0.1161815694698764
-0.1160472873513574
-0.1158980874733175
-0.1157318646630963
-0.1155462288210114
-0.1153384827005913
-0.1151056011690662
-0.1148442113773231
-0.1145505721390866
-0.114220549691211
-0.1138495848515525
-0.1134326339631242
-0.1129640430789601
-0.1124374510757322
-0.1118463782155153
-0.1111840395381871
-0.1104273686752271
-0.1095536878582353
-0.1085291967196569
-0.1073544122557919
-0.1060685882876072
-0.1046534021175428
-0.1031063545564889
-0.1014351741327864
-0.09965254902451519
-0.09773896750062391
-0.09564453189558779
-0.09333268077406562
-0.09090866021563337
-0.0885730624067452
-0.08621574129064757
-0.0839165049847298
-0.08167834262097635
-0.07954226731325566
-0.07750913274935232
-0.0755919313619864
-0.07378081383887029
-0.0720973660573625
-0.07051526587913315
-0.06908928985995136
-0.06774459055681847
-0.06659984987435884
-0.06549361549100778
-0.06467999389443138
-0.06382865015939891
-0.0634788121916697
-0.06287763276553072
-0.06336065083685957
-0.06359610024500625
-0.06586451549325339
-0.07512100557775514
-0.08222717606480744
-0.1161093634986662
-0.116105110287215
-0.1161007725349788
-0.1160966068637147
-0.1160924054967869
-0.1160880637954391
-0.1160835515601881
-0.1160788465224357
-0.1160739220477473
-0.1160687517418687
-0.1160633125842475
-0.1160575854220565
-0.1160515541492319
-0.1160452041229791
-0.1160385201745935
-0.1160314846432613
-0.1160240758620625
-0.1160162673832452
-0.1160080279070642
-0.1159993216700436
-0.1159901089961035
-0.1159803467765375
-0.1159699887843044
-0.1159589858307956
-0.1159472857852839
-0.1159348334899534
-0.115921570595609
-0.115907435348136
-0.1158923623202957
-0.115876282089952
-0.1158591208694546
-0.1158408000818624
-0.115821235856782
-0.1158003384435606
-0.1157780115218508
-0.1157541513750152
-0.1157286458968591
-0.1157013733926862
-0.1156722011421324
-0.11564098365405
-0.1156075605361966
-0.1155717539260616
-0.1155333653834636
-0.1154921721215773
-0.1154479224815768
-0.1154003305026547
-0.1153490694343422
-0.1152937640388018
-0.1152339815119998
-0.1151692208632263
-0.1150989005762518
-0.1150223444394714
-0.1149387654426171
-0.1148472476853123
-0.1147467263763153
-0.1146359660798051
-0.1145135374928305
-0.1143777932178216
-0.1142268431332476
-0.1140585300872783
-0.1138704066852191
-0.1136597138553995
-0.1134233615120558
-0.1131579109357133
-0.1128595574300929
-0.1125241109134477
-0.1121469695110827
-0.1117230659085842
-0.1112467444529287
-0.110711703734551
-0.11011173371792
-0.1094402421198437
-0.1086719395626836
-0.107782622624124
-0.1067441267606669
-0.1055590346233518
-0.1042655527409256
-0.1028468651138071
-0.1012988502944177
-0.0996316276134408
-0.09786425172548067
-0.09596094237911451
-0.09389369075518506
-0.09163342954385972
-0.08926528735335669
-0.08698649132678214
-0.08469097183593895
-0.08245695978437562
-0.08028528668622202
-0.07821561210106476