/*--------------------------------*- C++ -*----------------------------------*\
| =========                 |                                                 |
| \\      /  F ield         | OpenFOAM: The Open Source CFD Toolbox           |
|  \\    /   O peration     | Version:  v1812                                 |
|   \\  /    A nd           | Web:      www.OpenFOAM.com                      |
|    \\/     M anipulation  |                                                 |
\*---------------------------------------------------------------------------*/
FoamFile
{
    version     2.0;
    format      ascii;
    class       surfaceScalarField;
    location    "1000";
    object      phi;
}
// * * * * * * * * * * * * * * * * * * * * * * * * * * * * * * * * * * * * * //

dimensions      [0 3 -1 0 0 0 0];
oriented        oriented;


internalField   nonuniform List<scalar> 
21711
(
-2.737326418279631e-05
0.0007536368422505063
-2.850627577846959e-05
0.0009353781124972695
-2.884534103008764e-05
0.001111673057195786
-2.88973405596679e-05
0.001261498754773521
-2.882322264791072e-05
0.001404462066115853
-2.853959258599025e-05
0.001554764928714641
-2.798209743425084e-05
0.001708524403348784
-2.720112260842464e-05
0.00186259123922544
-2.629394331640761e-05
0.002020422966806797
-2.532410261202243e-05
0.002188976669267434
-2.429906386756203e-05
0.002373103152842582
-2.32034486337755e-05
0.002574342044501971
-2.202529686648277e-05
0.002793011625399708
-2.075650333195177e-05
0.003030342148295587
-1.939063668056014e-05
0.003287777020246213
-1.791715182806014e-05
0.003567529946489821
-1.632432851425156e-05
0.003871042747882446
-1.459629437293895e-05
0.004201252003718863
-1.271056332004474e-05
0.004559117169445906
-1.06556100733019e-05
0.004948812109342992
-8.334108827162844e-06
0.00536861287060619
-5.625520039669863e-06
0.005804892427335572
-2.710284957271083e-06
0.006238972528068221
2.401838572686122e-08
0.006703856449257055
1.059784387904152e-06
0.007277165411182522
0.008022586893794601
-1.849108446729261e-05
0.0002434462435985305
-2.111345459784636e-05
0.0003376478894052131
-2.381008411387206e-05
0.0004541483414787394
-2.64235442389357e-05
0.0005934827265533057
-2.857166713297365e-05
0.0007557849651264294
-2.98006353736208e-05
0.0009366070807348208
-3.019478708427487e-05
0.00111206720885692
-3.026400630166574e-05
0.001261567973948186
-3.018967230714892e-05
0.001404387732067132
-2.989384432628576e-05
0.001554469100670934
-2.931253339116065e-05
0.001707943092407465
-2.849879637792867e-05
0.00186177750219371
-2.755416796826403e-05
0.00201947833839521
-2.654480140913247e-05
0.002187967302773159
-2.547847174742642e-05
0.002372036823099677
-2.433899713423822e-05
0.002573202570037976
-2.311364586244312e-05
0.0027917862738971
-2.179364807130076e-05
0.003029022150649402
-2.037199793896232e-05
0.003286355369757428
-1.88372490453502e-05
0.003565995197611195
-1.717683447604219e-05
0.003869382332996963
-1.537358811391681e-05
0.004199448757239574
-1.340350931079727e-05
0.004557147090420178
-1.125399800996096e-05
0.004946662597739681
-8.821240249589019e-06
0.005366180112950504
-5.98774182406573e-06
0.005802058928759245
-2.92805417280181e-06
0.006235912840587913
-4.748086623147078e-08
0.006700975875966647
1.063223745412851e-06
0.007276054706556261
0.008023650117536666
-1.654823339678435e-05
0.0001721433628160593
-1.908697105529779e-05
0.0002459849812434918
-2.179472581479721e-05
0.0003403556441557949
-2.458175484721148e-05
0.0004569353705041916
-2.727431839196444e-05
0.0005961752900888306
-2.949245051850504e-05
0.0007580030972399484
-3.078390265312111e-05
0.0009378985328650655
-3.121410106767002e-05
0.001112497407234118
-3.129317752065397e-05
0.001261647050366425
-3.121647284586168e-05
0.001404311027350808
-3.090925196342174e-05
0.001554161879740903
-3.03082291662408e-05
0.001707342069604082
-2.946883672723283e-05
0.001860938109740479
-2.849567886656581e-05
0.002018505180535641
-2.745649794398393e-05
0.002186928121895463
-2.635907079840172e-05
0.002370939395903512
-2.518654038171533e-05
0.002572030039722823
-2.392557484568468e-05
0.00279052530821027
-2.256684434122777e-05
0.003027663420242396
-2.110284035917687e-05
0.003284891365542105
-1.952129634715657e-05
0.003564413653610278
-1.78088879334681e-05
0.003867669924377904
-1.594723768707666e-05
0.004197587106915349
-1.391093535137909e-05
0.004555110787945813
-1.168638573326162e-05
0.004944438047923246
-9.163421858836563e-06
0.005363657149152602
-6.228245395689491e-06
0.005799123752194608
-3.047735734247458e-06
0.006232732331045052
-4.662524038932369e-08
0.006697974765482733
1.105898777011545e-06
0.007274902182533305
0.00802475601631528
-1.451355588180534e-05
0.0001182001814930016
-1.681386839429182e-05
0.0001744436753130168
-1.935484706645789e-05
0.0002485259599057829
-2.206424543167796e-05
0.0003430650425154784
-2.484705650884042e-05
0.0004597181815773145
-2.752380644518585e-05
0.0005988520400189336
-2.972461483999094e-05
0.0007602039056250919
-3.100436443442165e-05
0.0009391782824532289
-3.142675554141769e-05
0.00111291979831027
-3.149878049098561e-05
0.001261719075284239
-3.141473759916575e-05
0.001404226984423826
-3.109812642392128e-05
0.001553845268526607
-3.048725902185795e-05
0.001706731202194572
-2.963897082046569e-05
0.001860089821527888
-2.865812185550555e-05
0.002017524331573564
-2.761179779940137e-05
0.002185881797871412
-2.65071830214208e-05
0.002369834781095775
-2.532711941701055e-05
0.002570849976186689
-2.40581049908035e-05
0.002789256293686872
-2.269051020384755e-05
0.003026295825516672
-2.121652393875525e-05
0.003283417379124476
-1.962328623407979e-05
0.003562820415907626
-1.789697098818657e-05
0.003865943608996595
-1.60182596432598e-05
0.004195708395512605
-1.396063669603849e-05
0.004553053164909521
-1.170986075939267e-05
0.00494218727185452
-9.150107997266016e-06
0.005361097396440884
-6.172412670852105e-06
0.005796146056800015
-2.933625976458689e-06
0.006229493544429195
1.208612874293897e-07
0.006694920278223777
1.237797938786461e-06
0.007273785245880977
0.008025993814256286
-1.277769093821661e-05
7.847423617272761e-05
-1.479626098650783e-05
0.0001202187515236231
-1.710522605370963e-05
0.0001767526403679346
-1.965245757727207e-05
0.0002510731914229727
-2.236532297759982e-05
0.0003457779079135137
-2.51448408955695e-05
0.0004624976994944129
-2.781139391212291e-05
0.0006015185930326366
-2.999840166584672e-05
0.0007623909133709384
-3.126783071604275e-05
0.0009404477114951067
-3.168263482637808e-05
0.00111333460239246
-3.174705379782532e-05
0.001261783494224131
-3.165439563527314e-05
0.001404134326228746
-3.132669024366786e-05
0.001553517563100243
-3.070395044720248e-05
0.001706108462389533
-2.984446071424204e-05
0.001859230331786027
-2.885344114437963e-05
0.002016533312008133
-2.779741047964899e-05
0.002184825767231974
-2.668300500563094e-05
0.002368720375605371
-2.549276951861087e-05
0.002569659740747909
-2.421303417952029e-05
0.002787976558283542
-2.283388021146195e-05
0.003024916671586329
-2.134720654199173e-05
0.003281930705351197
-1.973956841219088e-05
0.00356121277777168
-1.799665004609556e-05
0.003864200690536216
-1.60981736348006e-05
0.004193809919052762
-1.401651988038509e-05
0.004550971511094267
-1.173674099817272e-05
0.004939907492879149
-9.137092441785164e-06
0.005358497747916572
-6.113774911333923e-06
0.005793122739221741
-2.811854928953142e-06
0.006226191624499148
2.994028865671713e-07
0.006691809020409676
1.377805797625482e-06
0.007272706842971518
0.008027371620055537
-1.134575172143025e-05
4.984783977049771e-05
-1.306965735716645e-05
8.019814178783354e-05
-1.510302245765807e-05
0.0001222521166090502
-1.742394698585543e-05
0.000179073564886565
-1.998034186691969e-05
0.0002536295862997449
-2.269887697085484e-05
0.000348496443017159
-2.54779026777345e-05
0.0004652767252024413
-2.813933465528748e-05
0.0006041800250094981
-3.03155442244222e-05
0.0007645671229329987
-3.157508661277003e-05
0.0009417072538730905
-3.198212202543996e-05
0.001113741637777588
-3.203830388534085e-05
0.001261839676051292
-3.193575235131877e-05
0.001404031774662676
-3.159519736922711e-05
0.001553177008085158
-3.095849599267507e-05
0.001705471761003448
-3.008545036409504e-05
0.001858357286150259
-2.908174524064807e-05
0.002015529606890518
-2.80134111646459e-05
0.002183757433178411
-2.688657647637879e-05
0.002367593540909125
-2.568349697544884e-05
0.002568456661284324
-2.439033950174647e-05
0.002786683400764827
-2.299690468459441e-05
0.003023523236792873
-2.14948151174969e-05
0.003280428615708008
-1.98700462086293e-05
0.003559588008850529
-1.810780546354285e-05
0.003862438449719595
-1.61868309637585e-05
0.004191888944507793
-1.407840533881738e-05
0.004548863085423963
-1.176679537620639e-05
0.004937595882844598
-9.124066417909222e-06
0.005355855018979114
-6.051907639991286e-06
0.005790050580407502
-2.681645125637384e-06
0.006222821362021548
4.899218423976938e-07
0.00668863745344076
1.526447871982766e-06
0.00727167031694519
0.008028898067928416
-1.018629926191621e-05
2.930745471492951e-05
-1.16408399884912e-05
5.130238047522604e-05
-1.338462530264632e-05
8.194192708399305e-05
-1.543592955963894e-05
0.0001243034208530567
-1.777188256881594e-05
0.0001814095178877711
-2.034018489152713e-05
0.0002561978886196776
-2.306719784859887e-05
0.0003512234559753513
-2.585205897649309e-05
0.0004680615863328316
-2.851251936866322e-05
0.0006068404854023372
-3.067791277285672e-05
0.0007667325163302747
-3.192746903561126e-05
0.0009429568101234895
-3.232618422137334e-05
0.001114140352935169
-3.237313353426468e-05
0.001261886625329561
-3.225923305040725e-05
0.001403917874146093
-3.190397009873628e-05
0.001552821745100935
-3.12511116155965e-05
0.001704818902510094
-3.036206842362111e-05
0.001857468242952588
-2.934310530630935e-05
0.002014510643780546
-2.825983395116067e-05
0.002182674161845336
-2.711790235445265e-05
0.00236645160931001
-2.589927784870926e-05
0.002567238036810838
-2.458997024084335e-05
0.002785374093122918
-2.317950902477626e-05
0.003022112775592704
-2.165925248989456e-05
0.003278908359112003
-2.001460025021295e-05
0.003557943356594166
-1.823029506329743e-05
0.003860654144472859
-1.628406113044202e-05
0.004189942710529912
-1.414609045314198e-05
0.004546725114709406
-1.17997675060375e-05
0.00493524955983601
-9.110694403173757e-06
0.005353165945890959
-5.986350158713928e-06
0.005786926236132713
-2.542142770961888e-06
0.006219377154662115
6.93431004441528e-07
0.006685401879663063
1.684150404073277e-06
0.007270679597550069
0.008030582218332839
-1.19399498633434e-13
-9.286393996225065e-09
-3.16412130822581e-12
-2.794207206716532e-08
-1.20612066359959e-11
-4.72274360010627e-08
-3.050744240464392e-11
-6.768093476736454e-08
-6.297490959969028e-11
-8.985925096182455e-08
-1.151614658020254e-10
-1.143391119348012e-07
-1.947649475267896e-10
-1.417047891032714e-07
-3.127637165485212e-10
-1.7251369170411e-07
-4.853452456006096e-10
-2.072336846947231e-07
-7.362966392682272e-10
-2.461598651197689e-07
-1.098932625115514e-09
-2.893475614990305e-07
-1.616008489150034e-09
-3.366193781327724e-07
-2.336669184485959e-09
-3.876743650820522e-07
-3.311391546581834e-09
-4.422514894813433e-07
-4.587813583297234e-09
-5.002594573437495e-07
-6.206504553180977e-09
-5.618249269042403e-07
-6.272727518527199e-07
-1.048031294753972e-05
3.05585990076876e-05
-1.19573987086774e-05
5.277946621687579e-05
-1.372390356983762e-05
8.370843192888497e-05
-1.579604580967588e-05
0.0001263755630809468
-1.814986953283232e-05
0.0001837633416040762
-2.07329744080835e-05
0.0002587809934930149
-2.347404726273854e-05
0.0003539645288319991
-2.627095408065266e-05
0.0004708584931540104
-2.893111436204825e-05
0.0006095006456849706
-3.108607102872815e-05
0.0007688874729899169
-3.232582788659521e-05
0.000944196566967115
-3.27155680955912e-05
0.00111453009311481
-3.275210491520731e-05
0.001261923162112434
-3.262526244655883e-05
0.001403791031643381
-3.225333744429369e-05
0.00155244982006581
-3.15820370348994e-05
0.001704147602089804
-3.067447801454937e-05
0.001856560683927735
-2.96376265932483e-05
0.002013473792367986
-2.853674139758094e-05
0.002181573276672556
-2.737700950927978e-05
0.002365291877423202
-2.614010768708192e-05
0.002566001135019002
-2.481189211463321e-05
0.002784045877522692
-2.338163092896518e-05
0.003020682514418761
-2.184043063229397e-05
0.003277367158761881
-2.017311670724221e-05
0.003556276042649188
-1.836397869318917e-05
0.003858845006404389
-1.638969150468498e-05
0.004187968423294855
-1.421936702293494e-05
0.004544554790194315
-1.183539054116954e-05
0.004932865583296971
-9.096625992785962e-06
0.005350427181354355
-5.91661133908718e-06
0.005783746221451426
-2.392414721921389e-06
0.006215852958069219
9.110411538620019e-07
0.006682098423784155
1.851400204728638e-06
0.007269739238504769
0.008032433618537576
-6.398698797319195e-12
-9.279995412147269e-09
-2.929667723075936e-11
-2.791917437337797e-08
-7.215838333500778e-11
-4.718457465142218e-08
-1.391465425676132e-10
-6.761394702615638e-08
-2.355655943365095e-10
-8.97628323878446e-08
-3.68286258757957e-10
-1.142063918119225e-07
-5.464523406039408e-10
-1.415266236348842e-07
-7.826142562314352e-10
-1.722775304834927e-07
-1.094393155684083e-09
-2.069219065811579e-07
-1.506494314756404e-09
-2.457477648423129e-07
-2.052252792083972e-09
-2.888018039953432e-07
-2.773361091867721e-09
-3.358982708822088e-07
-3.716996963745184e-09
-3.867307303177837e-07
-4.931310223589582e-09
-4.410371773661517e-07
-6.46144030667065e-09
-4.987293284550942e-07
-8.348451819252131e-09
-5.599386712879676e-07
-1.062789549527555e-08
-6.249943340964993e-07
-6.943720607552264e-07
-1.079456257536503e-05
3.183296527021918e-05
-1.229685190126225e-05
5.428175552462357e-05
-1.408884666078248e-05
8.550042667286318e-05
-1.618462652972327e-05
0.0001284713429386807
-1.855949970377246e-05
0.0001861382147719522
-2.116257087122818e-05
0.0002613840646594756
-2.392322059151213e-05
0.0003567251785551781
-2.673257655933577e-05
0.0004736678491258064
-2.939285476555759e-05
0.0006121609238928081
-3.154015701837911e-05
0.0007710347752353967
-3.277072262466513e-05
0.0009454271325573733
-3.315079811944977e-05
0.001114910168578724
-3.317569478205952e-05
0.001261948058736089
-3.303424729033922e-05
0.001403649584115939
-3.264362864346405e-05
0.001552059201385454
-3.19515297974468e-05
0.001703455503232305
-3.102287562129044e-05
0.001855632029748201
-2.996545375847958e-05
0.002012416370515399
-2.884423244120009e-05
0.002180452055379695
-2.766395689378391e-05
0.002364111601880425
-2.640600790881151e-05
0.002564743186064307
-2.505609257353676e-05
0.002782695962163471
-2.360322606471394e-05
0.003019229647919567
-2.203827520572709e-05
0.003275802207853157
-2.034549098894375e-05
0.003554583258409951
-1.850872139750316e-05
0.00385700823676046
-1.65035499604608e-05
0.004185963251808878
-1.429802335278797e-05
0.004542349263554889
-1.187338713592278e-05
0.004930440947023587
-9.081493774229368e-06
0.005347635288003407
-5.842162590680714e-06
0.005780506890241245
-2.231435679607123e-06
0.006212242231180954
1.143969521991688e-06
0.006678723018578997
2.02875699671598e-06
0.007268854451036576
0.008034462375534138
-1.124413230876847e-11
-9.268751500891238e-09
-4.784944564361755e-11
-2.788256960767413e-08
-1.132285291487077e-10
-4.711919624885366e-08
-2.119985409160204e-10
-6.751517781286646e-08
-3.501515669770637e-10
-8.962468027378225e-08
-5.354727019237618e-10
-1.140210717107554e-07
-7.782289609669012e-10
-1.412838685446876e-07
-1.092265698123326e-09
-1.719634950716345e-07
-1.496613287377409e-09
-2.065175604917908e-07
-2.01744006268543e-09
-2.452269397486319e-07
-2.689565986551757e-09
-2.881296799259264e-07
-3.55619473577309e-09
-3.350316441338135e-07
-4.666034363432133e-09
-3.856208927988528e-07
-6.068697760583814e-09
-4.39634516149417e-07
-7.810542842426689e-09
-4.969874855928934e-07
-9.932628345047485e-09
-5.578165880242907e-07
-1.247210779056988e-08
-6.224559595136842e-07
-1.546098465448893e-08
-6.913845255172242e-07
-7.651755304366879e-07
-9.830666304835961e-06
1.654837771010877e-05
-1.113060935511411e-05
3.313290830192949e-05
-1.266088755125447e-05
5.581203370317558e-05
-1.44811905283796e-05
8.732072963489007e-05
-1.66037348092863e-05
0.0001305938872087088
-1.900380058610319e-05
0.0001885382805432645
-2.163179011844628e-05
0.0002640120541915296
-2.441360683578954e-05
0.0003595069952761675
-2.723552812033072e-05
0.0004764897704148791
-2.989936806117509e-05
0.0006148247638353591
-3.204116994933981e-05
0.0007731765771158947
-3.326278838076184e-05
0.0009466487509711031
-3.363242466289979e-05
0.001115279804828391
-3.364439603091385e-05
0.001261960030062968
-3.348661418441094e-05
0.001403491802231829
-3.307519379611816e-05
0.001551647780962818
-3.235986779707824e-05
0.001702740177221049
-3.140747868474361e-05
0.00185467964063336
-3.032675263205532e-05
0.002011335644474242
-2.918242728349769e-05
0.002179307730057193
-2.797882171541535e-05
0.002362907996319644
-2.669701597428422e-05
0.002563461380354112
-2.532257196778058e-05
0.002781321518135618
-2.384425978089922e-05
0.00301775133574123
-2.225271849663586e-05
0.00327421066652085
-2.053162161688999e-05
0.00355286216150562
-1.866438790752122e-05
0.003855141002998714
-1.662546005517123e-05
0.00418392432390483
-1.438183993426418e-05
0.004540105643402513
-1.19134655365076e-05
0.004927972572568246
-9.064909103043211e-06
0.005344786731580627
-5.7624312407352e-06
0.005777204412352317
-2.058074901779789e-06
0.006208537874864742
1.393550680760726e-06
0.006675271392992709
2.216834663654038e-06
0.007268031167061108
0.008036679210197583
-1.584840507935054e-11
-9.252903401948479e-09
-6.663674081824959e-11
-2.783178203327831e-08
-1.561043690923198e-10
-4.702972956730203e-08
-2.892985601201743e-10
-6.738198473135622e-08
-4.729050996924239e-10
-8.944107500135396e-08
-7.156578084069055e-10
-1.137783204393724e-07
-1.029001388307365e-09
-1.409705265913814e-07
-1.428128816525348e-09
-1.715643694885248e-07
-1.933484388140622e-09
-2.060122070089479e-07
-2.572577516042109e-09
-2.445878489626029e-07
-3.381365215565289e-09
-2.873208948064247e-07
-4.40392006042918e-09
-3.340090920714837e-07
-5.689577905143524e-09
-3.843352378865936e-07
-7.288434019540016e-09
-4.380356630670906e-07
-9.247312222219838e-09
-4.950286104787503e-07
-1.160785732939792e-08
-5.554560460349913e-07
-1.440694825848885e-08
-6.196568717686355e-07
-1.767857458489261e-08
-6.881129026183174e-07
-2.145617272473517e-08
-7.613979360071536e-07
-2.577543998206416e-08
-8.401421863219414e-07
-3.067548654250499e-08
-9.250129760248708e-07
-3.619951742515889e-08
-1.016706497327142e-06
-4.239599354216858e-08
-1.115946926037157e-06
-4.931933080229492e-08
-1.223489966208287e-06
-5.703045523588255e-08
-1.34012795111938e-06
-6.559734003247611e-08
-1.466695484458206e-06
-7.509556928088905e-08
-1.604075087579076e-06
-8.560895894838526e-08
-1.753202583788612e-06
-9.723025525731122e-08
-1.915072095738727e-06
-1.10061918822736e-07
-2.090740613014483e-06
-1.242170115295162e-07
-2.28133206573534e-06
-1.39820196082233e-07
-2.488040865034858e-06
-1.570088597566557e-07
-2.712134808168532e-06
-1.759343706334039e-07
-2.954957226909427e-06
-1.967634971665281e-07
-3.21792819778199e-06
-2.196799897699852e-07
-3.502544593336185e-06
-2.4488635708349e-07
-3.810378669119898e-06
-2.72605861147792e-07
-4.143074808399029e-06
-3.030847514731341e-07
-4.502343963961403e-06
-3.365947870396416e-07
-4.889955185531773e-06
-3.734360575594685e-07
-5.30772352344694e-06
-4.139401917228534e-07
-5.757493368560718e-06
-4.584739590598427e-07
-6.241116132175846e-06
-5.074433570842092e-07
-6.760420806527262e-06
-5.612982650845622e-07
-7.317175701390939e-06
-6.205377164734303e-07
-7.913039137304202e-06
-6.857159476482816e-07
-8.549496388414111e-06
-7.574493062751095e-07
-9.227779415677271e-06
-8.364241996694302e-07
-9.948765139490907e-06
-9.234062500732258e-07
-1.07128467996467e-05
-1.019250899806592e-06
-1.151977155559404e-05
-1.124915755203656e-06
-1.236843563265054e-05
-1.241475013539065e-06
-1.325662595428114e-05
-1.370136345533095e-06
-1.418069412616514e-05
-1.512260926368618e-06
-1.513514451416415e-05
-1.669387195731824e-06
-1.611211311604521e-05
-1.843259313180924e-06
-1.710070687545307e-05
-2.035861410076544e-06
-1.808616411309813e-05
-2.249459209564486e-06
-1.904878473997803e-05
-2.486650757240919e-06
-1.996256322391692e-05
-2.750428728139321e-06
-2.079343609093872e-05
-3.044257350321856e-06
-2.149702771707763e-05
-3.372167690684874e-06
-2.201574125839665e-05
-3.738875923550701e-06
-2.227499137213232e-05
-4.149930519200366e-06
-2.217830907787613e-05
-4.611894679770488e-06
-2.160096104746594e-05
-5.13257136355336e-06
-2.038160701078185e-05
-5.721277607748133e-06
-1.831136165544392e-05
-6.389172249476451e-06
-1.511941932489485e-05
-7.149635460308901e-06
-1.045413085759719e-05
-8.018688913029118e-06
-3.858061913314385e-06
-9.015407352043321e-06
5.265136878394215e-06
-1.016215110617017e-05
1.76951214469709e-05
-1.149026323086191e-05
3.44610204087059e-05
-1.30514215264481e-05
5.737319198133255e-05
-1.490285312469216e-05
8.917216121811037e-05
-1.705537169016714e-05
0.0001327464057636768
-1.948441398327898e-05
0.0001909673228314197
-2.21394938294092e-05
0.0002666671340382645
-2.494357287931994e-05
0.0003623110743306551
-2.778194954255373e-05
0.0004793281470833215
-3.045325130546646e-05
0.0006174960656001428
-3.259039921443436e-05
0.0007753137250168164
-3.380279726697079e-05
0.0009478611490043692
-3.416109866238933e-05
0.001115638106189631
-3.415875937564789e-05
0.001261957690732934
-3.398282530188542e-05
0.001403315868118484
-3.354840984859489e-05
0.001551213365474257
-3.280734931996061e-05
0.001701999116679473
-3.182851969512544e-05
0.001853700811006853
-3.072170149341662e-05
0.002010228826285411
-2.955145655199675e-05
0.002178137485143594
-2.832169116213411e-05
0.002361678230939664
-2.701317749477064e-05
0.00256215286671877
-2.56113366830336e-05
0.002779919677304674
-2.410470123000033e-05
0.003016244700296209
-2.248369413877989e-05
0.00327258965938236
-2.073140597838547e-05
0.003551109873318743
-1.883083902807642e-05
0.003853240435995254
-1.675523795878822e-05
0.004181848722780952
-1.44705866211198e-05
0.004537820992032952
-1.195531684414028e-05
0.004925457302731751
-9.046460155209798e-06
0.005341877874902813
-5.676795596266611e-06
0.005773834747766346
-1.871081831376473e-06
0.006204732161123283
1.661250277964583e-06
0.006671739060879613
2.41629981625627e-06
0.007267276117531096
0.008039095510013661
-2.022787766246711e-11
-9.232675885150836e-09
-8.388108452937859e-11
-2.776812963997242e-08
-1.948526782082282e-10
-4.691875893686385e-08
-3.586788202832022e-10
-6.721815969265147e-08
-5.827756613890832e-10
-8.921697940699654e-08
-8.768466439546732e-10
-1.134842508635886e-07
-1.253528454671511e-09
-1.405938463685002e-07
-1.729382668966907e-09
-1.71088517075092e-07
-2.326313763201701e-09
-2.054152779456891e-07
-3.073266273611723e-09
-2.438408987220673e-07
-4.007495166954836e-09
-2.863866684037041e-07
-5.174172088697633e-09
-3.328424178209597e-07
-6.62354063782415e-09
-3.828858721386412e-07
-8.406475145628092e-09
-4.362527314420067e-07
-1.057055205055107e-08
-4.928645365007069e-07
-1.31582686508522e-08
-5.528683323863456e-07
-1.62075774408442e-08
-6.166075659505516e-07
-1.975385640001294e-08
-6.84566626659742e-07
-2.383227719750665e-08
-7.573195182551239e-07
-2.847990001023197e-08
-8.354945666236895e-07
-3.37376409053638e-08
-9.197552383400794e-07
-3.965142399148212e-08
-1.010792717576201e-06
-4.627272886046785e-08
-1.109325624660297e-06
-5.365921111427135e-08
-1.216103487636348e-06
-6.187528923365402e-08
-1.331911876906238e-06
-7.099271128363251e-08
-1.457578066575308e-06
-8.109115207835768e-08
-1.593976651249777e-06
-9.225886645525281e-08
-1.742034874215172e-06
-1.045934171029285e-07
-1.902737550273439e-06
-1.182024964578079e-07
-2.077131539263266e-06
-1.332048493395909e-07
-2.26632971892232e-06
-1.497313125897222e-07
-2.471514408363042e-06
-1.679259769002243e-07
-2.693940150990349e-06
-1.87947499661453e-07
-2.934935711878737e-06
-2.099705578054747e-07
-3.195905148009001e-06
-2.341874960540967e-07
-3.478327664138562e-06
-2.608101493581951e-07
-3.78375602558351e-06
-2.900719051537353e-07
-4.113813063117029e-06
-3.222300034150963e-07
-4.470185876983895e-06
-3.575681180372846e-07
-4.854617082976831e-06
-3.963992684123794e-07
-5.268892385927141e-06
-4.390690899894717e-07
-5.714823560616957e-06
-4.85959529337075e-07
-6.194225707218215e-06
-5.37493025980822e-07
-6.708887324990455e-06
-5.941372495215308e-07
-7.260531493620157e-06
-6.564104862038358e-07
-7.85076591698358e-06
-7.248877874791911e-07
-8.48101910400118e-06
-8.002080031131618e-07
-9.1524592173087e-06
-8.830818452079e-07
-9.865891314935947e-06
-9.743012109278283e-07
-1.062162745163266e-05
-1.074749964783145e-06
-1.141932281944799e-05
-1.185416482483498e-06
-1.225776913257423e-05
-1.307408280760984e-06
-1.313463417335019e-05
-1.441969310821292e-06
-1.404613311314454e-05
-1.590500272490348e-06
-1.498661356900415e-05
-1.754582842613059e-06
-1.594803056196723e-05
-1.936008598029804e-06
-1.691928113534131e-05
-2.136813843473851e-06
-1.788535888238821e-05
-2.359321692261551e-06
-1.882627690497833e-05
-2.606193397013441e-06
-1.971569153221188e-05
-2.880491140939987e-06
-2.051913835874898e-05
-3.185755384402425e-06
-2.119176348406925e-05
-3.526100443956775e-06
-2.167539620712512e-05
-3.906333160551209e-06
-2.189475866144243e-05
-4.332099886963467e-06
-2.175254235411969e-05
-4.810068481487894e-06
-2.112299245275275e-05
-5.348152276932704e-06
-1.984352321295699e-05
-5.955781660665621e-06
-1.770373226965079e-05
-6.644226805135605e-06
-1.443097417993491e-05
-7.4269683584021e-06
-9.671389307815466e-06
-8.320101973393215e-06
-2.96492830728407e-06
-9.342693972254497e-06
6.287728863247236e-06
-1.051671170329793e-05
1.88691391610783e-05
-1.187555887005068e-05
3.58198675574426e-05
-1.347025830754023e-05
5.896789140126519e-05
-1.535546585781287e-05
9.105736875342027e-05
-1.754084567944425e-05
0.0001349317855750242
-2.000142459820228e-05
0.0001934279017458419
-2.268533948524318e-05
0.0002693510489266962
-2.551545145672724e-05
0.0003651411863075568
-2.837579599710153e-05
0.0004821884916295375
-3.105659850219481e-05
0.0006201768681071649
-3.318880271120751e-05
0.0007774459292174313
-3.439154946502494e-05
0.0009490638957374317
-3.473751345242965e-05
0.001115984070141144
-3.471936987626777e-05
0.00126193954711135
-3.45233690920572e-05
0.001403119867292581
-3.406367401334044e-05
0.001550753670359175
-3.329428904565241e-05
0.001701229731697902
-3.228624449583244e-05
0.001852692766455922
-3.115048941472657e-05
0.002009093071218303
-2.995146029771494e-05
0.002176938456055953
-2.869265991929334e-05
0.002360419430573537
-2.735454408131455e-05
0.002560814750913889
-2.592239756182595e-05
0.002778487530767936
-2.438452154974911e-05
0.003014706824291786
-2.273113517782923e-05
0.003270936272963593
-2.094473838862327e-05
0.003549323476501276
-1.90079297854925e-05
0.003851303627337817
-1.689269075643792e-05
0.004179733483694436
-1.456402107488447e-05
0.004535492322318667
-1.199861340318126e-05
0.004922891894998251
-9.025710657675137e-06
0.005338904972168978
-5.584579573623891e-06
0.005770393616654696
-1.669071021225956e-06
0.006200816652595308
1.948681420979076e-06
0.006668121308433751
2.627882367695189e-06
0.007266596916593458
0.008041723392381251
-2.442061523201894e-11
-9.208255767462957e-09
-1.007980568032045e-10
-2.769175331647021e-08
-2.332998658622069e-10
-4.678625844796377e-08
-4.279195348558497e-10
-6.702354153649149e-08
-6.927724228783213e-10
-8.895212822777659e-08
-1.038500727218577e-09
-1.131385244873882e-07
-1.478904706718935e-09
-1.401534445656819e-07
-2.031895575978804e-09
-1.705355286708259e-07
-2.720842487564475e-09
-2.047263338185793e-07
-3.576172759537751e-09
-2.429855715584164e-07
-4.636546799594878e-09
-2.853262977721677e-07
-5.948402151308219e-09
-3.315305661221618e-07
-7.563090398594185e-09
-3.812711877200411e-07
-9.532462231771836e-09
-4.342833635459962e-07
-1.19050165163105e-08
-4.904919862135932e-07
-1.472424348397579e-08
-5.500491094489954e-07
-1.802929403779589e-08
-6.13302519456328e-07
-2.185705536518e-08
-6.807388694336029e-07
-2.62445799030967e-08
-7.529319978842022e-07
-3.123121399374261e-08
-8.305079367989528e-07
-3.686021178312831e-08
-9.141262449529581e-07
-4.317988868353266e-08
-1.004473045255217e-06
-5.024445494420282e-08
-1.102261063199952e-06
-5.811467105178422e-08
-1.208233276595286e-06
-6.685842515820354e-08
-1.323168128180037e-06
-7.655130566569695e-08
-1.447885191811036e-06
-8.727720702446532e-08
-1.583250756048e-06
-9.912900116863602e-08
-1.730183086695197e-06
-1.122092916860497e-07
-1.889657266900833e-06
-1.266312640384882e-07
-2.062709574632116e-06
-1.425196415834185e-07
-2.250441349730468e-06
-1.600117604758889e-07
-2.454022298510522e-06
-1.792587807035335e-07
-2.674693140542555e-06
-2.004270304187806e-07
-2.913767472733858e-06
-2.236995271657478e-07
-3.172632662667968e-06
-2.492776595391272e-07
-3.452749544045743e-06
-2.77383088737431e-07
-3.755650609569613e-06
-3.082598572668865e-07
-4.082936308695856e-06
-3.421767648093905e-07
-4.436268984478291e-06
-3.79430027506048e-07
-4.817363836237979e-06
-4.20346268920779e-07
-5.227976161363959e-06
-4.652858781566617e-07
-5.669883969085193e-06
-5.146468120593395e-07
-6.14486479180973e-06
-5.688688745062738e-07
-6.65466528175135e-06
-6.284385803133949e-07
-7.200961807640268e-06
-6.938946790751302e-07
-7.785309838561238e-06
-7.658344532039753e-07
-8.40907935060909e-06
-8.449209039102895e-07
-9.073372787607483e-06
-9.318910440418131e-07
-9.778921195958854e-06
-1.027565387793268e-06
-1.052595312904404e-05
-1.132858979765242e-06
-1.131402924854229e-05
-1.248794182221328e-06
-1.214183395093849e-05
-1.376515634417197e-06
-1.300691274165481e-05
-1.517307743425877e-06
-1.390534102415497e-05
-1.672615406461532e-06
-1.483130592547673e-05
-1.844068548167454e-06
-1.577657743907391e-05
-2.033511403826186e-06
-1.672983829782239e-05
-2.243037788398341e-06
-1.76758325150494e-05
-2.475033689680653e-06
-1.859428102008551e-05
-2.73222900220943e-06
-1.945849623487426e-05
-3.017761064030045e-06
-2.023360631094781e-05
-3.335252509849082e-06