/*--------------------------------*- C++ -*----------------------------------*\
| =========                 |                                                 |
| \\      /  F ield         | OpenFOAM: The Open Source CFD Toolbox           |
|  \\    /   O peration     | Version:  v1812                                 |
|   \\  /    A nd           | Web:      www.OpenFOAM.com                      |
|    \\/     M anipulation  |                                                 |
\*---------------------------------------------------------------------------*/
FoamFile
{
    version     2.0;
    format      ascii;
    class       volVectorField;
    location    "1000";
    object      U;
}
// * * * * * * * * * * * * * * * * * * * * * * * * * * * * * * * * * * * * * //

dimensions      [0 1 -1 0 0 0 0];


internalField   nonuniform List<vector> 
10965
(
(0.8270062042305287 -0.1024087566838082 2.877220454590174e-15)
(0.9471522466740888 -0.10793486820658 8.893682553400292e-16)
(1.038002409621806 -0.1091341219096253 -3.986822987102805e-16)
(1.084340593098292 -0.1082617219401485 -1.378719843521142e-15)
(1.110559867667023 -0.1067544023415641 -2.742684109454406e-15)
(1.130937471749356 -0.1046421475586292 -4.010258293819368e-15)
(1.143344814188424 -0.1014278641617543 -4.580057335855937e-15)
(1.146722885624101 -0.09726422627202766 -2.716379291421624e-15)
(1.144398994158635 -0.09246240181187559 1.893908540115784e-15)
(1.140717797171152 -0.0874783047039812 7.000326721116012e-15)
(1.137869702237067 -0.08233856938193233 1.159359747014833e-14)
(1.135809841670127 -0.07712874700503322 1.46851277583061e-14)
(1.134013631065564 -0.07168376618198535 1.531393567017656e-14)
(1.132283666663426 -0.06619182849809147 1.425777157238149e-14)
(1.130658402627875 -0.0604196590491326 1.256782120469495e-14)
(1.129164096648853 -0.05471621565657258 1.046576098810438e-14)
(1.127821630914215 -0.04863697378137349 8.028077620271667e-15)
(1.126635260230278 -0.04279391623076319 5.671220997594797e-15)
(1.125560602778572 -0.03638839927349366 3.228741726523772e-15)
(1.124617876425477 -0.03045004173257058 8.073229294264592e-16)
(1.123345354631212 -0.02370148613512111 -4.186276362799326e-16)
(1.118204811675064 -0.01740517836702377 -2.359514820224972e-16)
(1.107001512091664 -0.009604351828999042 1.414292421693446e-16)
(1.094944217281065 -0.003616784744321637 1.690694847468161e-16)
(1.094114439610104 0.002542119242774409 5.39334895076734e-17)
(1.106991838742078 0.0005870837958692357 1.327935625345573e-18)
(0.3655642671763043 -0.06617916498975339 1.001837429677916e-14)
(0.4699121736878827 -0.07551035369930159 8.786590797116577e-15)
(0.5845006972525447 -0.0850670921777123 7.002889640505447e-15)
(0.7052912738061581 -0.09453326852918607 4.911945256940768e-15)
(0.8288549586152949 -0.1028632633291387 2.656781777238413e-15)
(0.947859425875587 -0.1082890272248851 7.284894268584449e-16)
(1.037830964103457 -0.1094322075549878 -4.424588622018734e-16)
(1.083891699193141 -0.1085058948534048 -1.442294782028983e-15)
(1.110017981449439 -0.1069580309714707 -2.825402241523787e-15)
(1.130266180190539 -0.1047943242992019 -4.075576020189205e-15)
(1.142528881192685 -0.1015305646123257 -4.64743940386356e-15)
(1.145826377251844 -0.09732364921151196 -2.737511066355434e-15)
(1.14349942790024 -0.09248833366755986 1.914331630514242e-15)
(1.139857221077749 -0.0874763578147638 7.011355296149944e-15)
(1.137052918182236 -0.08231227565914682 1.15873838578558e-14)
(1.135030009451501 -0.07708030586882619 1.464779369227884e-14)
(1.133267042152481 -0.071616344184985 1.525666365011465e-14)
(1.131568793650613 -0.06610743270701308 1.419102697061931e-14)
(1.129975216720631 -0.06032103540872589 1.250009562200846e-14)
(1.12851082272898 -0.05460429402716018 1.041056564462325e-14)
(1.127198096971657 -0.04851289475207243 7.995494348652655e-15)
(1.126038933739521 -0.04265739326141434 5.652366078478619e-15)
(1.124991365400405 -0.03623766504598094 3.220079823909313e-15)
(1.124075595708932 -0.03028294497340931 8.13779755004872e-16)
(1.1228164583381 -0.02351450833740833 -4.016386830279654e-16)
(1.117678010132251 -0.01718089953444025 -2.148850297784866e-16)
(1.106512826634158 -0.009367804301340907 1.462707728807337e-16)
(1.094579114606823 -0.003308051770060367 1.708043828193272e-16)
(1.094058199228004 0.002824640255360558 5.786896704630023e-17)
(1.107169199549011 0.000706987294253344 2.186421797958261e-18)
(0.277749647840119 -0.05825522876473355 9.834892299057637e-15)
(0.3690859939108848 -0.0669468897417333 9.537566131848955e-15)
(0.4733390072902562 -0.0762247058833677 8.446456917336506e-15)
(0.5876936451137672 -0.08573194915487495 6.726092857226789e-15)
(0.7080646132082995 -0.09512678197122482 4.645756528335877e-15)
(0.8308375219924757 -0.1033170449649843 2.40375085484643e-15)
(0.9486748554372857 -0.1086357024763051 5.93120278965653e-16)
(1.037723358430384 -0.1097190932165468 -4.936303320636253e-16)
(1.083470323496208 -0.1087372751236234 -1.50735330892118e-15)
(1.109489211964221 -0.1071479123408998 -2.907004013025085e-15)
(1.129599780046051 -0.1049323517559259 -4.16789275628389e-15)
(1.141711099236862 -0.1016192357789019 -4.708313861482781e-15)
(1.14492408397626 -0.09736953343371693 -2.738750442583319e-15)
(1.142593231874593 -0.0925016130110877 1.944004890467924e-15)
(1.138990823315472 -0.08746264743903212 7.02742599479999e-15)
(1.136231265419312 -0.08227515906520337 1.158441802941638e-14)
(1.13424594608334 -0.07702183747456455 1.461398982092698e-14)
(1.132516592345841 -0.07153968662424427 1.51993247905023e-14)
(1.130850329635559 -0.0660144259358381 1.413326022626868e-14)
(1.129288613285725 -0.06021446451602205 1.244169031881434e-14)
(1.127854215901451 -0.05448489066928736 1.035906138847009e-14)
(1.126571217412156 -0.04838185997337277 7.961173938347242e-15)
(1.125439142444976 -0.0425142237626723 5.629449933431914e-15)
(1.124418446807977 -0.03608054035556378 3.211255750183522e-15)
(1.123529436623312 -0.03010958788769202 8.146306309251392e-16)
(1.122282633617659 -0.02332083550054114 -3.908447334784258e-16)
(1.117146435746941 -0.01694924213373745 -1.986164767673127e-16)
(1.106018458046997 -0.009123216058888205 1.556294933161121e-16)
(1.094213579769039 -0.002984895632423792 1.756874250785612e-16)
(1.094013440535093 0.003118233734137356 5.725313589005211e-17)
(1.107364619919702 0.0008295926289270595 7.061895032190824e-19)
(0.2038647152605533 -0.05125240352928282 8.656289563222895e-15)
(0.2812769951800668 -0.05905355145850237 9.299284292862771e-15)
(0.372658049767459 -0.06771023544003615 9.033576469744782e-15)
(0.476811135969033 -0.07694060054609841 8.073033607767918e-15)
(0.5909296365273214 -0.08640428737681134 6.289815080517e-15)
(0.7108680726549018 -0.09568962905843258 4.1715639392325e-15)
(0.8328380902989628 -0.103758103050171 2.139599488166012e-15)
(0.9495100531641663 -0.1089698682564633 5.006969162099558e-16)
(1.03762790734479 -0.1099936652073529 -5.462452064967182e-16)
(1.083050329406553 -0.1089565806640977 -1.57292518911847e-15)
(1.108957273451833 -0.1073249261034694 -2.991491705434259e-15)
(1.128927600474899 -0.1050573220667533 -4.307164473833785e-15)
(1.140886252870656 -0.1016953544793479 -4.808763085253684e-15)
(1.14401467293904 -0.09740359291389857 -2.70188385431041e-15)
(1.141680594881935 -0.09250390800424257 1.988073449591986e-15)
(1.138118803455491 -0.0874387109584773 7.04550108417491e-15)
(1.135404641091875 -0.08222858165925546 1.158491120211729e-14)
(1.133457395214827 -0.07695459624974825 1.458608382481726e-14)
(1.131762008091539 -0.07145490433545382 1.513841998498506e-14)
(1.130127996493442 -0.06591383838126615 1.406694375036797e-14)
(1.128598322906423 -0.06010082690087645 1.237425838319476e-14)
(1.127193997485853 -0.05435882312907663 1.030317263052306e-14)
(1.125940726968524 -0.04824453304300524 7.923944757022104e-15)
(1.124835614191088 -0.04236502840340461 5.605034470097765e-15)
(1.123841592743316 -0.03591748679195354 3.201052823999838e-15)
(1.122979123213958 -0.02993040409210769 8.190312957504239e-16)
(1.121743773223495 -0.02312068712637971 -3.783598918947766e-16)
(1.116610273109627 -0.01671040374181057 -1.764556661543368e-16)
(1.10551851287117 -0.008870423725509259 1.602821193152385e-16)
(1.093847933437595 -0.002646579797862147 1.84036501999292e-16)
(1.093980848760613 0.003423111036377201 5.451378655147862e-17)
(1.107582919372158 0.000957162040841835 1.016929220020173e-17)
(0.1433657043077039 -0.04528701182228432 6.344749181898425e-15)
(0.2072073941879602 -0.0520473562640042 7.82435907051498e-15)
(0.2847977614237106 -0.05983265958528249 8.645190166670028e-15)
(0.3762182880327553 -0.0684583855622269 8.525482917692524e-15)
(0.4802708595014902 -0.07764102963589292 7.656351043022722e-15)
(0.5941462927877323 -0.08704150627541117 5.847459155481611e-15)
(0.7136478794552393 -0.09622127657136655 3.740308815085168e-15)
(0.83480935499937 -0.1041781970476083 1.919505162616811e-15)
(0.9503264210891721 -0.1092836395060776 4.149084913961828e-16)
(1.037520201340291 -0.1102505834229707 -6.129686345321568e-16)
(1.082619967276031 -0.1091614171391431 -1.647208299362846e-15)
(1.108415794012886 -0.1074882272494447 -3.079021150152919e-15)
(1.128245375741824 -0.1051689602251207 -4.450863776669893e-15)
(1.140051969836275 -0.1017590271635223 -4.906304496740357e-15)
(1.143097250911723 -0.09742622324408928 -2.648085488539662e-15)
(1.140761320101784 -0.09249573097015906 2.052143173901056e-15)
(1.13724104900062 -0.08740503494178227 7.061851777033683e-15)
(1.134572819968556 -0.08217293298815395 1.158393685143065e-14)
(1.132664045644489 -0.07687888799814557 1.454340659392195e-14)
(1.13100295914809 -0.07136223211130713 1.50732594592415e-14)
(1.129401455842512 -0.06580585695986775 1.399474864439501e-14)
(1.127904015701864 -0.05998025563105176 1.231367125830093e-14)
(1.126529831843113 -0.05422619000886802 1.024963295023614e-14)
(1.125306307805979 -0.04810096599994539 7.892452841768093e-15)
(1.124228022360449 -0.04220983461134568 5.587412678676915e-15)
(1.123260504369588 -0.03574848369856825 3.187886411620217e-15)
(1.122424360172631 -0.02974537445212051 8.223820026166019e-16)
(1.121199625047795 -0.02291394851727274 -3.574487322089748e-16)
(1.116069367121199 -0.01646428829260421 -1.602904859964102e-16)
(1.10501271702504 -0.008609056863418039 1.710105826561203e-16)
(1.093482385721303 -0.002292163739656914 1.929301503285754e-16)
(1.093961240922372 0.003739769909820423 5.253573930785442e-17)
(1.107823291121302 0.001091355365140617 1.757741274886958e-17)
(0.09479216700301361 -0.04038067911899096 4.167295301271307e-15)
(0.1464515891222777 -0.04606306725290917 5.410701756041498e-15)
(0.2105696422959623 -0.05282796027046455 6.937907547836758e-15)
(0.2883293125887919 -0.06059813520400428 7.949979075248315e-15)
(0.3797820962498188 -0.06918976198326027 8.003654062129286e-15)
(0.483729006075815 -0.07832182865962581 7.225099922666012e-15)
(0.5973558700229008 -0.08764969307530834 5.516779286869943e-15)
(0.716408606323229 -0.09672862001251792 3.492039321911462e-15)
(0.8367572582442269 -0.1045821959746875 1.762869283941483e-15)
(0.9511247736676571 -0.109578678146796 3.306560501505096e-16)
(1.03739909038042 -0.1104898431429965 -6.897815400720836e-16)
(1.082178332015184 -0.1093513128939993 -1.731596841490767e-15)
(1.107863888885218 -0.1076375725880739 -3.158946092504041e-15)
(1.127552097023823 -0.105267157036267 -4.595516311707253e-15)
(1.139207285819085 -0.1018101316578448 -5.006731205547562e-15)
(1.142170954672611 -0.09743729412856096 -2.581418629372818e-15)
(1.13983464398904 -0.09247696878933453 2.125722168198497e-15)
(1.136356860463073 -0.08736151985526704 7.07980153544951e-15)
(1.133735144929006 -0.08210810681540874 1.157606623617974e-14)
(1.131865278063463 -0.07679459178399564 1.450152065464321e-14)
(1.130238869897671 -0.07126153658393766 1.500483149471664e-14)
(1.128670173915033 -0.06569034170718954 1.392632263869578e-14)
(1.127205201691416 -0.05985260641302906 1.224100634260282e-14)
(1.125861265520789 -0.05408684580986201 1.019691031036544e-14)
(1.124667547306324 -0.04795101173789246 7.862321138018251e-15)
(1.123615978658209 -0.04204849542426687 5.562490987097849e-15)
(1.122674830059967 -0.03557337287963327 3.185784583103187e-15)
(1.121864801472083 -0.02955434941712285 8.289062358948644e-16)
(1.120649832543275 -0.02270038692913345 -3.441161327802704e-16)
(1.11552337641185 -0.01621067874287288 -1.497987874647872e-16)
(1.104500550010805 -0.008338598924070283 1.877704272255329e-16)
(1.093117072846175 -0.001920567347503681 2.033922268426941e-16)
(1.093955515798319 0.004068840051869534 4.985820865677368e-17)
(1.108086995846146 0.001232292014472641 2.951066417783275e-17)
(0.0556303973251414 -0.03631211907216265 2.585841971843031e-15)
(0.09760808459602779 -0.04112468047206026 3.325285293286223e-15)
(0.1495733380394415 -0.0468288555933893 4.572011125437035e-15)
(0.213960621258645 -0.05359817938777195 6.158951388030963e-15)
(0.2918823150000255 -0.06135275787477903 7.276768256176894e-15)
(0.3833618216813228 -0.06990749474490134 7.457909194142108e-15)
(0.4871977838277312 -0.07898363342673449 6.775584187100287e-15)
(0.6005695059907955 -0.08823816142096171 5.193805648228739e-15)
(0.7191615651200458 -0.09723771736850624 3.272331969089874e-15)
(0.838689729426525 -0.104973703073025 1.624017655384556e-15)
(0.9519113594229398 -0.1098584087916686 2.474967767398141e-16)
(1.037268661896237 -0.1107134504685633 -7.646580508411541e-16)
(1.081727200783918 -0.1095269880193959 -1.819062291760003e-15)
(1.10730188897432 -0.1077731492205903 -3.240446117291149e-15)
(1.126847444388399 -0.1053519398167887 -4.739918357340088e-15)
(1.138351463757683 -0.1018485292093058 -5.097995921155831e-15)
(1.141234764154935 -0.09743652652695539 -2.51371574541985e-15)
(1.138899455704304 -0.09244727530385219 2.202292708586587e-15)
(1.135465180385879 -0.08730781627081559 7.096680542557251e-15)
(1.13289066402019 -0.08203377416023953 1.156957239836267e-14)
(1.131060240283318 -0.07670139706544776 1.445575333622213e-14)
(1.129468970403948 -0.07115252202286339 1.493524481560641e-14)
(1.127933456444729 -0.06556701146290803 1.385797061263766e-14)
(1.126501255219363 -0.0597176141416012 1.217203774908504e-14)
(1.125187738247873 -0.0539405416368674 1.014196146666034e-14)
(1.124023942774111 -0.04779443692781464 7.823757339974894e-15)
(1.12299902839254 -0.04188079173823018 5.542053635287957e-15)
(1.122084159872311 -0.03539193728477131 3.173868881212388e-15)
(1.121300049613505 -0.02935712820578294 8.333678851146006e-16)
(1.120093993430174 -0.02247972777396396 -3.195216732370411e-16)
(1.114971921800248 -0.01594933544648391 -1.292652376398832e-16)
(1.10398144757558 -0.008058478227700562 2.018937332962371e-16)
(1.09275215803297 -0.001530619584798806 2.01336246102926e-16)
(1.093964701285231 0.004411044512534116 5.107703298147395e-17)
(1.108375640462938 0.001379491884446809 2.900981090545403e-17)
(-0.00592094326824353 6.301716525237235e-06 -6.495289730549364e-17)
(-0.01769637437400701 1.058042799454023e-06 -1.954095561424371e-16)
(-0.02948783028813636 -3.188411355145294e-07 -3.273101471354459e-16)
(-0.04137424431064363 -2.655180578526505e-07 -4.615813648419349e-16)
(-0.05342845832614865 -1.873041017096186e-07 -5.99053604560126e-16)
(-0.06571088027814649 -3.198334317078642e-07 -7.405914548258232e-16)
(-0.07825725027806381 -5.880643548744104e-07 -8.869368870601042e-16)
(-0.09105868561515133 -9.804222898890801e-07 -1.037189056108858e-15)
(-0.1040352144402179 -1.548755790119845e-06 -1.191254362308668e-15)
(-0.1170119584081108 -2.377778722579543e-06 -1.347108476579925e-15)
(-0.1297175110959067 -3.585824551291258e-06 -1.500720978799586e-15)
(-0.1418236924836334 -5.330626970144913e-06 -1.649047681888187e-15)
(-0.1530212070468163 -7.80348828081627e-06 -1.786525526776505e-15)
(-0.1630934048135529 -1.121082105481808e-05 -1.911468579889395e-15)
(-0.1719496511030436 -1.575307709070914e-05 -2.021986685467814e-15)
(-0.1796125126884881 -2.160783546823821e-05 -2.118096693395898e-15)
(-0.1861800665031715 -2.892510577969043e-05 -2.200805056835457e-15)
(0.05825918635733783 -0.03701954174983451 1.905797267838164e-15)
(0.1004687701121908 -0.04185884671078187 2.613348156017359e-15)
(0.1527356709737044 -0.04758510370033919 3.852180447313738e-15)
(0.2173850068129192 -0.05435824052799463 5.442840984424306e-15)
(0.2954610534685553 -0.06209524200446416 6.612020271295141e-15)
(0.3869613277460635 -0.07061002596254067 6.903110921219132e-15)
(0.4906811420415224 -0.07962754994953339 6.316152272196038e-15)
(0.6037883731377137 -0.08882647675085606 4.776321155003455e-15)
(0.7219082977864955 -0.09774523170854428 2.973663560403214e-15)
(0.8406114032128101 -0.1053511677015522 1.481952588368062e-15)
(0.9526875158138214 -0.1101234381363894 1.687732237785887e-16)
(1.037129983654349 -0.1109220506370793 -8.327937122385001e-16)
(1.081266847169631 -0.1096886829026747 -1.908703663444641e-15)
(1.106729436564199 -0.107894897131277 -3.334229161564352e-15)
(1.1261307408513 -0.1054231489750477 -4.886499697110384e-15)
(1.137483609595876 -0.1018739765080706 -5.183338503669666e-15)
(1.140287656993014 -0.09742360198948245 -2.443436564860797e-15)
(1.137954719475326 -0.092406286032876 2.28103842000469e-15)
(1.134565037610527 -0.08724355183305101 7.110378445072952e-15)
(1.132038496687888 -0.08194957750487734 1.156099119485762e-14)
(1.130248136985655 -0.07659896464710514 1.440666549084521e-14)
(1.12869253839073 -0.07103486722946369 1.486404659208188e-14)
(1.127190650356073 -0.06543556216917468 1.378720364608662e-14)
(1.125791585611116 -0.05957499369683743 1.210316818457506e-14)
(1.124508718785931 -0.05378701025509863 1.007861605448716e-14)
(1.123375014587692 -0.04763099269368094 7.787128849586375e-15)
(1.122376733933627 -0.04170648986524698 5.528275091956257e-15)
(1.121488095989281 -0.0352039483285998 3.164335026680526e-15)
(1.120729713614517 -0.02915350045348277 8.345912419811082e-16)
(1.119531715643128 -0.02225168838438695 -3.091258988329001e-16)
(1.114414627468002 -0.01568002151122133 -1.098437955121571e-16)
(1.103454825554521 -0.007768077884702692 2.098793095165096e-16)
(1.092387849455844 -0.001121054317098113 1.992887408445462e-16)
(1.09398996485419 0.004767167811945442 5.888255889900709e-17)
(1.108690519588829 0.001532580389671593 2.271419527115109e-17)
(-0.005917385009495292 6.446988682354889e-06 -6.729075336498254e-17)
(-0.0176840907129795 1.030095691471643e-06 -2.023903518508457e-16)
(-0.02946511677680719 -4.838957109836912e-07 -3.389817480701936e-16)
(-0.04133924599446776 -5.921576869700215e-07 -4.779774910691972e-16)
(-0.05337908713520068 -7.336305810418575e-07 -6.203435348772668e-16)
(-0.06564467715392029 -1.152227096582093e-06 -7.669232605085857e-16)
(-0.07817115136220801 -1.775577146061754e-06 -9.181735308241291e-16)
(-0.09094865351656292 -2.596842368451531e-06 -1.074314768157092e-15)
(-0.1038957483892271 -3.673703950214643e-06 -1.23359051610338e-15)
(-0.1168356560958599 -5.095268736308735e-06 -1.394655502016577e-15)
(-0.1294950922456424 -6.980770060697735e-06 -1.553788461998571e-15)
(-0.1415449333337763 -9.483937701487015e-06 -1.706164907668109e-15)
(-0.1526767414313047 -1.278713367525492e-05 -1.848938289939769e-15)
(-0.1626766050690598 -1.708442427747217e-05 -1.977723431972424e-15)
(-0.1714576492086466 -2.256363282923437e-05 -2.091739855428589e-15)
(-0.1790460338606367 -2.939583450765189e-05 -2.191004337537832e-15)
(-0.1855424069783765 -3.773211444796868e-05 -2.276429420329938e-15)
(-0.191082242443451 -4.770889554996663e-05 -2.349731622454916e-15)
(0.06093930610787909 -0.03771779076009613 1.315728231174416e-15)
(0.1033796600840699 -0.04258416601208299 2.033245522348508e-15)
(0.1559437708510844 -0.04833255938621974 3.217725107588988e-15)
(0.2208474958599918 -0.0551083758715832 4.750811764052628e-15)
(0.2990699943989947 -0.06282564734369055 5.958506008866267e-15)
(0.3905855998310039 -0.07129943421653943 6.346487355098815e-15)
(0.4941820472102175 -0.08027216107673373 5.888775273451551e-15)
(0.6070167331475537 -0.08941389286224563 4.329054471258783e-15)
(0.7246523751478579 -0.09822929448496062 2.634721918962225e-15)
(0.842520464271678 -0.1057124420791989 1.346026204876084e-15)
(0.9534529613123851 -0.1103728075055357 9.182428815096886e-17)
(1.036982197558198 -0.1111151947336103 -9.073010808246541e-16)
(1.08079642535228 -0.1098360278602239 -2.000260712972954e-15)
(1.106145661493261 -0.1080024435915452 -3.430677470035028e-15)
(1.125401036237395 -0.1054804256604081 -5.035917550507119e-15)
(1.136602720458439 -0.1018861115678092 -5.272552988383493e-15)
(1.139328645792523 -0.09739815500523763 -2.392886297659277e-15)
(1.136999516372889 -0.09235363204827167 2.330719629955982e-15)
(1.133655592915012 -0.08716836159072619 7.129879802259815e-15)
(1.131177876259108 -0.08185516388076246 1.155327756052967e-14)
(1.129428265427505 -0.07648695571681094 1.435719368912824e-14)
(1.127908929771984 -0.07090825002018429 1.478523591354827e-14)
(1.126441168618731 -0.06529568782924547 1.371514104975815e-14)
(1.125075658319418 -0.059424458021499 1.203051491318934e-14)
(1.123823720828132 -0.05362598134374659 1.002780219287306e-14)
(1.122720319824026 -0.0474604275702258 7.759292714558853e-15)
(1.121748683385446 -0.04152535190481153 5.501743038002431e-15)
(1.120886260626015 -0.03500917446960612 3.156898183091986e-15)
(1.120153412595803 -0.02894325260090921 8.38797658330348e-16)
(1.118962612227055 -0.02201597893513997 -2.941508856330249e-16)
(1.11385110163142 -0.01540249821658718 -9.046862399272259e-17)
(1.102920056427323 -0.007466721179238775 2.198270393535388e-16)
(1.092024394355518 -0.0006904983646703863 2.039797881136258e-16)
(1.094032609466203 0.005138055565474526 6.079351332198641e-17)
(1.109032895226351 0.001691302610215644 9.198927002383821e-18)
(-0.005912164145346521 6.600362390035683e-06 -6.943427325945178e-17)
(-0.01766669954593136 1.017758350986031e-06 -2.088349556096571e-16)
(-0.02943371004164554 -5.986063081366401e-07 -3.49772743686867e-16)
(-0.04129181031247375 -8.083027851626756e-07 -4.932418748045421e-16)
(-0.05331336375505556 -1.086033258364354e-06 -6.402406096886124e-16)
(-0.06555803098175861 -1.683663998029768e-06 -7.915377338698206e-16)
(-0.07806034680004431 -2.529952115313262e-06 -9.476585563646635e-16)
(-0.09080949664092131 -3.621126230856652e-06 -1.108565173926637e-15)
(-0.1037226032645526 -5.019498493305451e-06 -1.273286162984436e-15)
(-0.1166209985557385 -6.819064946611199e-06 -1.439510440584009e-15)
(-0.1292295100258939 -9.143453109752369e-06 -1.603695451565678e-15)
(-0.1412180490247588 -1.215046150194039e-05 -1.76139051865109e-15)
(-0.1522790600007856 -1.602600687742793e-05 -1.90820629794645e-15)
(-0.1622015159563908 -2.09675705150658e-05 -2.041146239124754e-15)
(-0.1709026006691719 -2.716532219635496e-05 -2.158778764028687e-15)
(-0.1784124851427249 -3.479076633965102e-05 -2.261096187306954e-15)
(-0.184834880643025 -4.399511437247635e-05 -2.349227289805801e-15)
(-0.1903070466418685 -5.49117306269982e-05 -2.424829449997262e-15)
(-0.1949709813148925 -6.766764789150304e-05 -2.489784888017035e-15)
(0.02815066381152402 -0.03419355983612888 3.039654900485212e-16)
(0.06367589103648165 -0.03840828908713582 7.63108329594485e-16)
(0.1063464589376224 -0.04330230466946827 1.480591885302628e-15)
(0.1592029827316153 -0.04907291560460549 2.589863952093997e-15)
(0.2243534777818331 -0.0558503081346448 4.029108684225753e-15)
(0.3027152564428663 -0.06354751288148672 5.262512093665811e-15)
(0.3942379245563408 -0.07198607715863821 5.740406054410056e-15)
(0.4977061785298553 -0.08091659972250755 5.348260624787732e-15)
(0.6102606865571042 -0.08998297528263309 3.809003695449619e-15)
(0.7273986670493144 -0.09869217452592882 2.309115095021904e-15)
(0.8444197478291707 -0.106058635470574 1.230408989574911e-15)
(0.9542083732243564 -0.1106061173125964 3.192252961133619e-18)
(1.036824709017538 -0.1112924419432369 -9.917556772090164e-16)
(1.080315172632367 -0.109968530436466 -2.088687304178405e-15)
(1.10554972367038 -0.1080953126083048 -3.550708504677972e-15)
(1.124657387821887 -0.1055233236408912 -5.180058523420726e-15)
(1.135707797026928 -0.1018844939105539 -5.337920046592825e-15)
(1.138356752778757 -0.09735975527809224 -2.366737201847073e-15)
(1.136032945500428 -0.09228889517392164 2.361502492188873e-15)
(1.132736029606305 -0.08708184296366091 7.145451341917033e-15)
(1.130308058235418 -0.08175014920735721 1.154327159351145e-14)
(1.128599942424909 -0.07636500405792904 1.430560173035879e-14)
(1.127117517829498 -0.07077232413224695 1.471119183280334e-14)
(1.125684439022399 -0.06514706125616741 1.363468429269115e-14)
(1.124352951487481 -0.05926570193006271 1.195354885308114e-14)
(1.123132267637834 -0.05345716862943363 9.970258360546199e-15)
(1.122059422870288 -0.04728247695922577 7.725565689206399e-15)
(1.121114467885574 -0.04133712790920958 5.481532317386846e-15)
(1.12027827720242 -0.03480737480606847 3.143588132982434e-15)
(1.11957075889312 -0.0287261623740147 8.467089486189772e-16)
(1.118386285008216 -0.02177229699434836 -2.761390659398224e-16)
(1.113280920348825 -0.01511652085719178 -7.746997499489668e-17)
(1.102376456752104 -0.007153659727703112 2.328246618986493e-16)
(1.091662077913263 -0.0002374590203811861 2.094910048117724e-16)
(1.094094082525827 0.005524621563333531 6.494162806719069e-17)
(1.1094041577367 0.001855419981456715 5.380118654143964e-18)
(-0.005903095606542288 6.739416677310969e-06 -7.151877723816451e-17)
(-0.01763804774140994 1.005393134744058e-06 -2.15102133156204e-16)
(-0.02938386131696818 -7.113325375557977e-07 -3.602188497023487e-16)
(-0.04121893782410438 -1.027294181593132e-06 -5.079405902705865e-16)
(-0.05321535841894826 -1.449234903560001e-06 -6.590163680272421e-16)
(-0.06543238512382663 -2.236302956502215e-06 -8.150224030717394e-16)
(-0.0779039551757494 -3.318600830469956e-06 -9.757144196749497e-16)
(-0.09061833823619944 -4.69565662713156e-06 -1.141382884022143e-15)
(-0.1034913102549053 -6.434342356783692e-06 -1.310909492596689e-15)
(-0.1163424620442115 -8.633027507941434e-06 -1.482010236125855e-15)
(-0.1288949057789006 -1.141862833219703e-05 -1.651010270271127e-15)
(-0.1408177387271268 -1.495048825333684e-05 -1.813252411977999e-15)
(-0.1518043744018797 -1.94144642273696e-05 -1.964318479586912e-15)
(-0.1616466761798009 -2.500690212886574e-05 -2.101027632533908e-15)
(-0.1702658190703877 -3.191677952212823e-05 -2.221935817570433e-15)
(-0.177695864694689 -4.031446495923864e-05 -2.327173255394464e-15)
(-0.1840434363771726 -5.034971016209484e-05 -2.417873695715151e-15)
(-0.1894474490410995 -6.215723833689489e-05 -2.495769693559762e-15)
(-0.1940504545857859 -7.586571411105304e-05 -2.562752249241291e-15)
(-0.1979827825903162 -9.160864814071275e-05 -2.6205302064278e-15)
(-0.2013562945014601 -0.0001095287616763487 -2.670316641749886e-15)
(-0.204263329358611 -0.0001297861623296854 -2.71413166276084e-15)
(-0.2067783998163818 -0.0001525576687911573 -2.752168269926228e-15)
(-0.2089610365718401 -0.00017804184456532 -2.785540502682777e-15)
(-0.2108585583557997 -0.0002064614301043543 -2.814937670784201e-15)
(-0.2125084976199767 -0.0002380652368373901 -2.840814504710496e-15)
(-0.2139406053995186 -0.0002731301615112449 -2.863615585318313e-15)
(-0.2151784510912197 -0.0003119634406212816 -2.883612772787886e-15)
(-0.2162406747154789 -0.0003549050867510202 -2.901090501293e-15)
(-0.2171419573187204 -0.000402330693061925 -2.916235528592137e-15)
(-0.2178937692401443 -0.000454654511141027 -2.929093706838566e-15)
(-0.2185049457243783 -0.0005123329820099162 -2.939903692632928e-15)
(-0.2189821290557113 -0.0005758686634806885 -2.94881155231414e-15)
(-0.2193301073649485 -0.0006458146287666329 -2.955168613026389e-15)
(-0.2195520730313719 -0.0007227793913408539 -2.959813374297032e-15)
(-0.2196498179190312 -0.0008074324065586377 -2.96249394269959e-15)
(-0.2196238783297003 -0.0009005102082065304 -2.963190460027431e-15)
(-0.2194736391980806 -0.001002823258812484 -2.961865481573519e-15)
(-0.2191974045203528 -0.001115263612125873 -2.958369907127701e-15)
(-0.2187924390035658 -0.001238813462574921 -2.952720089896565e-15)
(-0.2182549843595936 -0.001374554721361544 -2.944904761630365e-15)
(-0.2175802524121018 -0.001523679751856069 -2.934715994041143e-15)
(-0.2167623961300308 -0.001687503415722899 -2.922024664245636e-15)
(-0.2157944587124174 -0.001867476608320333 -2.906667433624935e-15)
(-0.2146683000323783 -0.002065201539060525 -2.88846531079503e-15)
(-0.2133744988733875 -0.002282448959421916 -2.867246073732276e-15)
(-0.2119022284853742 -0.002521177711063493 -2.843371087309519e-15)
(-0.2102391020391024 -0.002783556885447892 -2.815474292589519e-15)
(-0.2083709834148623 -0.003071991104375437 -2.784794898828745e-15)
(-0.2062817575259806 -0.003389149396331824 -2.750571408778681e-15)
(-0.2039530527749061 -0.00373799833156489 -2.712309277230183e-15)
(-0.2013639063978921 -0.004121840195628557 -2.669583216975621e-15)
(-0.1984903611570388 -0.004544357170588388 -2.622013512899382e-15)
(-0.195304978999858 -0.005009662731112098 -2.569512624481808e-15)
(-0.1917762537304824 -0.005522361801715833 -2.511912020683013e-15)
(-0.1878679004394139 -0.006087621605661171 -2.447948640698363e-15)
(-0.1835379938619573 -0.006711255716532219 -2.375994666713796e-15)
(-0.1787379210603106 -0.007399824491424224 -2.298786022171071e-15)
(-0.1734111052219948 -0.008160755968812085 -2.213693699494574e-15)
(-0.1674914468123251 -0.009002492418512493 -2.120905230720407e-15)
(-0.1609014150017611 -0.009934669126898351 -2.021494517931713e-15)
(-0.1535497058735398 -0.01096833368924646 -1.912441331054321e-15)
(-0.1453283636674807 -0.01211621622560114 -1.796167422860418e-15)
(-0.1361092363020912 -0.01339306327376907 -1.673888598040502e-15)
(-0.1257396056259581 -0.01481605076268052 -1.544940157506695e-15)
(-0.1140367955263041 -0.01640529371954698 -1.415559346542592e-15)
(-0.1007815149654467 -0.01818447243753738 -1.278270563318635e-15)
(-0.08570963708612393 -0.02018159684837167 -1.137608693095719e-15)
(-0.06850204530379118 -0.02242991662010504 -9.978157243021167e-16)
(-0.04877208593264031 -0.0249688853956373 -8.687847408114122e-16)
(-0.02605008742897421 -0.02784509186013965 -7.213430279106109e-16)