/*--------------------------------*- C++ -*----------------------------------*\
| =========                 |                                                 |
| \\      /  F ield         | OpenFOAM: The Open Source CFD Toolbox           |
|  \\    /   O peration     | Version:  v1812                                 |
|   \\  /    A nd           | Web:      www.OpenFOAM.com                      |
|    \\/     M anipulation  |                                                 |
\*---------------------------------------------------------------------------*/
FoamFile
{
    version     2.0;
    format      ascii;
    class       volScalarField;
    location    "1792";
    object      p;
}
// * * * * * * * * * * * * * * * * * * * * * * * * * * * * * * * * * * * * * //

dimensions      [0 2 -2 0 0 0 0];


internalField   nonuniform List<scalar> 
10947
(
0.06069764841189331
0.0606974391128401
0.06069721335662633
0.06069700096455591
0.06069681233498815
0.0606966722193194
0.06069661468488117
0.06069666744093784
0.06069683948379764
0.06069711443338242
0.06069745370621231
0.06069782776953608
0.0606982406592734
0.06069870327975806
0.06069921332364538
0.06069976418802246
0.06070034826591188
0.06070095786069448
0.06070158704984564
0.06070223037766765
0.0607028810676873
0.06070353151360009
0.06070417364914351
0.06070479898642219
0.06070539855229978
0.06070596279961299
0.06070648150813657
0.06070694367358818
0.06070733738613269
0.06070764970751007
0.06070786655599936
0.06070797266242339
0.0607079517807362
0.06070778753247838
0.06070746547509113
0.06070697667148508
0.06070632022562711
0.06070549415513367
0.06070445803517609
0.06070308790583769
0.0607012619322365
0.06069897173169431
0.06069622866541263
0.060692998806044
0.06068925120797163
0.06068496954300825
0.06068014612787598
0.06067477482637988
0.06066884543657271
0.06066233996604715
0.0606552315920821
0.06064748404451591
0.06063904617204225
0.06062984022840424
0.06061976621412263
0.06060872756884111
0.06059663526361445
0.06058339733283827
0.0605689193927552
0.06055310707063728
0.06053586756120571
0.0605171099968415
0.06049674274604964
0.06047466623757745
0.06045076477304555
0.060424904624161
0.0603969402330775
0.06036672014272436
0.06033408690602992
0.06029887559252636
0.06026091475680464
0.0602200279504641
0.0601760347732308
0.06012875220513351
0.06007799648131192
0.06002358541282334
0.05996534118487741
0.05990309372502804
0.05983668471790414
0.05976597233895175
0.05969083678395169
0.05961118667296671
0.05952696640726821
0.05943816455706535
0.05934482335730858
0.05924704938989586
0.05914502553581664
0.05903902429391499
0.05892942259024032
0.05881671825227506
0.05870154840830548
0.05858471021254923
0.05846718451760524
0.05835016345511243
0.05823508339791861
0.05812366554349587
0.05801796750258083
0.05792045099311621
0.05783407331328815
0.05776241410347087
0.05770985516630969
0.0576818435074928
0.05768528495836094
0.05772909156486211
0.05782442689653152
0.05798609161785453
0.0582600841712267
0.05886502255544287
0.05455659713473321
0.05455661436559686
0.05455663405420832
0.0545566531941259
0.05455667276246807
0.05455669460648244
0.05455672122090469
0.05455675592103391
0.05455680248392098
0.05455686457833973
0.05455694568383296
0.05455704919764851
0.05455717691554204
0.05455732941561546
0.05455750976093345
0.05455772307898187
0.05455797401282449
0.05455826682032459
0.05455860581690457
0.05455899534950721
0.05455943949819379
0.05455994181769577
0.05456050595275441
0.05456113609558606
0.05456183663386858
0.05456261207183851
0.05456346707050899
0.05456440649456129
0.05456543545109544
0.05456655933013056
0.05456778385372465
0.05456911513831243
0.0545705597706745
0.05457212487953474
0.05457381813834909
0.05457564756509845
0.05457762097600939
0.0545797452207078
0.0545820259940784
0.05458446918735292
0.05458708335854445
0.05458987812955972
0.0545928633308634
0.0545960513752491
0.05459945610376157
0.0546030894200193
0.05460695794120603
0.0546110656760524
0.05461543342788059
0.05462013216014102
0.05462528582473271
0.0546309795050279
0.0546370977472091
0.05464338463437977
0.05464983827124287
0.05465677022097853
0.05466443284875148
0.05467292085712543
0.05468225254316627
0.05469242524335071
0.05470345743032551
0.05471537590156343
0.05472820740071214
0.05474199209006399
0.05475679697937513
0.05477271532879799
0.05478984767824925
0.05480827947921838
0.05482808145901519
0.05484932231968365
0.05487207002013544
0.05489638815819486
0.05492233397896465
0.05494995659804171
0.05497929467239845
0.05501037370495385
0.05504320306124475
0.05507777271723931
0.05511404977433128
0.05515197480465405
0.05519145812540488
0.0552323761393288
0.05527456792276212
0.05531783229337402
0.05536192564613306
0.0554065609036434
0.05545140798339521
0.05549609623249735
0.05554021931186896
0.05558334301462104
0.05562501646181537
0.05566478701207292
0.05570221902224416
0.05573691626743049
0.05576854731729271
0.05579687239016942
0.05582176903130762
0.05584325217593531
0.05586148147503508
0.05587674423696141
0.0558893915389777
0.05589968479526012
0.05590754764366992
0.05591255795946728
0.05591318283470456
0.05589025643159502
0.05576924118435006
0.05579049925399004
0.05298174534491873
0.05298174989303017
0.05298175517349405
0.05298176038296996
0.05298176566272332
0.05298177128941833
0.05298177758099436
0.05298178494555471
0.05298179387156843
0.05298180487493397
0.05298181843145425
0.05298183488469664
0.05298185427416117
0.05298187667104585
0.05298190270449513
0.05298193341688266
0.05298196993890341
0.05298201343329232
0.05298206514638605
0.05298212610912096
0.0529821967099026
0.05298227739884781
0.05298236974797984
0.05298247600138721
0.05298259854435881
0.05298274009281699
0.05298290381794966
0.05298309338950829
0.05298331299924274
0.05298356738025286
0.05298386181515836
0.05298420212358065
0.05298459461607356
0.0529850459950002
0.05298556320596667
0.05298615335838706
0.05298682385913196
0.05298758173951978
0.05298842777224318
0.05298934668428711
0.05299031868225625
0.05299134446116261
0.05299243868097632
0.05299361137994796
0.05299486553213876
0.05299619744614761
0.05299759143419096
0.05299902545259606
0.0530004841801282
0.05300195597247961
0.05300341642533857
0.0530048084556054
0.05300605221614969
0.0530071187792113
0.05300809771512432
0.05300913752099563
0.05301027675153713
0.05301128447836229
0.0530118904249893
0.05301221725453766
0.05301257659282289
0.053013070770518
0.05301366201756313
0.05301432906840486
0.05301506225471803
0.05301584588495693
0.05301668363270874
0.05301761559260883
0.05301869894288243
0.05301998255484744
0.05302150976594085
0.05302332904351747
0.05302549707234877
0.05302807965138363
0.05303115276178574
0.05303480356831077
0.05303913130006854
0.05304424797614169
0.05305027887908951
0.05305736266624705
0.05306565098660416
0.05307530744423462
0.05308650572613529
0.05309942669370782
0.0531142542248185
0.05313116959245908
0.05315034418084032
0.05317193037635535
0.05319605053405842
0.0532227840143649
0.05325215241103216
0.053284103246905
0.05331849258888378
0.05335506720798264
0.05339344705939395
0.05343310894564125
0.0534733722139306
0.05351338714452279
0.0535521265650839
0.0535883835065734
0.05362078277958354
0.05364777703589058
0.05366743900053261
0.05367781592151355
0.05368376594351001
0.05369747192301438
0.05360292908112468
0.05343390738982912
0.05204321587113353
0.05204321932569948
0.05204322334565904
0.0520432273299077
0.05204323139475363
0.05204323576741932
0.0520432407239337
0.05204324662885373
0.05204325391572991
0.0520432630271975
0.05204327435118778
0.05204328815360998
0.05204330446827968
0.05204332330532479
0.0520433449322376
0.05204336985922989
0.05204339866228806
0.05204343182375467
0.05204346981274074
0.05204351311340469
0.05204356217216918
0.05204361742375043
0.05204367917181443
0.05204374811621644
0.05204382546330863
0.05204391228603401
0.05204400972272435
0.05204411908733997
0.05204424189999861
0.05204437990691547
0.05204453510910086
0.05204470979620296
0.05204490658199233
0.05204512844135476
0.05204537875063139
0.05204566132507616
0.05204598041012146
0.05204634057331772
0.05204674681858994
0.05204720637808653
0.05204773193519441
0.05204833941889475
0.05204904356525576
0.05204985809386339
0.05205079154762407
0.05205182709355481
0.05205293042411797
0.05205409754414374
0.05205535149861337
0.05205670320547684
0.05205813542075324
0.0520596138729894
0.0520611092361036
0.05206260281693351
0.05206407485775385
0.05206547943561074
0.0520667480308494
0.05206786648432195
0.05206895726360881
0.0520701325436816
0.05207123801513078
0.05207204529197662
0.05207265944155105
0.05207331200973519
0.05207404262644982
0.05207481313018942
0.05207559246104847
0.05207634863196638
0.05207707525165176
0.05207778611341
0.05207848764327397
0.05207917407223356
0.05207983386807907
0.05208045285345504
0.0520810146478102
0.05208150095526377
0.05208189191720049
0.05208216656460497
0.05208230348579212
0.05208228176699962
0.05208208225017684
0.05208168914851776
0.05208109204912094
0.05208028831181059
0.05207928584121056
0.05207810616376325
0.05207678768080568
0.05207538889249552
0.05207399129726903
0.05207270157304223
0.05207165255006201
0.05207100240834055
0.05207093150050292
0.05207163624749088
0.05207331972155622
0.05207617887723062
0.05208038900813104
0.05208608680240644
0.05209335330256553
0.05210219855705085
0.05211257522790672
0.05212449714583096
0.05213779126260052
0.05214974622761688
0.0521603065667567
0.05221139553123121
0.05221736103625371
0.05194956015291465
0.05105635161147506
0.05105635428230128
0.05105635739044372
0.05105636047070903
0.05105636361116412
0.05105636698463373
0.05105637080318375
0.05105637535296884
0.05105638098212805
0.05105638805469319
0.05105639689983161
0.05105640776302459
0.05105642074280044
0.05105643593292102
0.05105645353792798
0.0510564739441562
0.05105649767252087
0.05105652516953865
0.05105655686278646
0.05105659318360758
0.05105663446666555
0.05105668081621295
0.05105673227018252
0.0510567894903359
0.05105685351607013
0.05105692511798868
0.05105700505683677
0.05105709419605694
0.05105719351472716
0.05105730411043612
0.05105742721305245
0.05105756420459855
0.05105771664197872
0.05105788628250973
0.05105807511278544
0.05105828538105009
0.05105851963265973
0.05105878074754085
0.05105907197917773
0.05105939699698733
0.05105975993151544
0.05106016541262503
0.05106061853723522
0.05106112454970116
0.05106168840996868
0.05106231703914309
0.05106302998002643
0.05106385626221133
0.05106481157741539
0.05106587990450283
0.05106703311372542
0.05106827308511925
0.05106961013317126
0.05107102986032457
0.05107250398131369
0.0510739999110541
0.05107548329409544
0.05107691719185929
0.05107825968239542
0.05107948283267934
0.05108061610387686
0.05108174638974704
0.05108284979888284
0.05108378391225973
0.05108459446532678
0.05108542394266531
0.05108631322553184
0.05108726374777332
0.05108826219750294
0.05108930819968252
0.0510904179714049
0.05109160847445337
0.05109289149520956
0.05109427295159545
0.05109575629364205
0.05109734342635672
0.05109903442927983
0.05110082706843891
0.05110271618712778
0.05110469301018906
0.05110674438625582
0.0511088519995062
0.05111099159945755
0.05111313231932602
0.05111523618016123
0.05111725790808649
0.05111914522318583
0.05112083978696068
0.05112227901510503
0.05112339896549055
0.05112413848742698
0.05112444475535589
0.05112428019603981
0.0511236306424313
0.05112251429700914
0.05112099074517855
0.0511191689229485
0.05111721305502571
0.05111534467945388
0.05111382647381528
0.05111291118404946
0.05111298973390577
0.0511151952212822
0.05111779735649224
0.05110862488654525
0.05113727673723174
0.05119642162181002
0.05079665094020332
0.05004178152449921
0.05004178370907631
0.05004178625113797
0.05004178876964581
0.05004179133502031
0.05004179408532831
0.05004179718952849
0.05004180087776513
0.05004180543347313
0.05004181115678952
0.05004181832351898
0.05004182714833782
0.05004183774325821
0.05004185020353696
0.05004186466579903
0.05004188143698263
0.05004190098134832
0.05004192369897354
0.05004194997591536
0.05004198020671922
0.05004201467027175
0.05004205332419369
0.05004209618457989
0.05004214392553925
0.05004219742299783
0.05004225731683477
0.0500423242402339
0.05004239890892315
0.05004248212666971
0.05004257478413995
0.05004267786673079
0.05004279246660916
0.05004291979622862
0.05004306120335124
0.05004321818806194
0.05004339242204892
0.05004358577028881
0.05004380031521939
0.05004403838328044
0.05004430257306783
0.05004459578425845
0.05004492124818923
0.05004528255857423
0.05004568370084509
0.05004612908575768
0.05004662356959457
0.05004717230373743
0.05004778023344843
0.05004845258337142
0.05004920105765304
0.05005005235566219
0.05005102395489197
0.05005210537641091
0.05005329044968027
0.05005457544255326
0.05005594207994123
0.05005736789837894
0.05005882571773467
0.05006027937447299
0.05006168268882799
0.05006298836806751
0.0500641774328209
0.0500652841331632
0.05006636914111996
0.05006737226415908
0.05006821080690938
0.05006897821655398
0.05006975967677697
0.05007056589264259
0.05007141063234499
0.05007231310004894
0.05007328340051786
0.05007433414149397
0.05007548088845948
0.05007673535503725
0.05007810847908451
0.05007961190819376
0.0500812582125346
0.05008306089988934
0.05008503432892008
0.05008719352860825
0.05008955390145317
0.05009213077544425
0.05009493876525995
0.05009799090126977
0.05010129748709762
0.05010486465498965
0.05010869260562547
0.05011277354800105
0.05011708939751674
0.05012160934678139
0.05012628749079784
0.0501310607582089
0.05013584746116798
0.05014054680906989
0.05014503964994606
0.05014919033251791
0.05015284984822573
0.05015586469550819
0.05015808689444264
0.05015928474645164
0.0501590453523888
0.05015838369583232
0.05015922561825296
0.05014010457314681
0.05013655890125624
0.05024529710879947
0.04970210240246194
0.04910254592703137
0.04910254779005016
0.04910254995776089
0.04910255210482092
0.04910255429019243
0.049102556629304
0.04910255926285954
0.04910256238374637
0.04910256623162774
0.04910257106250985
0.04910257711412918
0.04910258457681552
0.04910259356450653
0.04910260416426372
0.04910261646451416
0.04910263071561431
0.04910264733130092
0.0491026666647696
0.04910268905331774
0.04910271483788524
0.04910274424759539
0.04910277722787473
0.04910281383907306
0.04910285467078009
0.04910290043110354
0.04910295168580427
0.04910300898809705
0.04910307295587077
0.04910314428093931
0.04910322372880963
0.04910331214428278
0.04910341046039114
0.04910351970843596
0.04910364102895581
0.04910377568395084
0.04910392507058432
0.04910409073649588
0.04910427439683165
0.04910447795305787
0.04910470351354685
0.04910495341579271
0.0491052302498923
0.04910553688258606
0.04910587648078912
0.04910625253326344
0.04910666886875806
0.04910712966861414
0.04910763947238558
0.04910820308789589
0.04910882522029368
0.04910951027713003
0.04911026545330158
0.04911111125827083
0.04911206502364857
0.04911312511907762
0.0491142886733005
0.04911554845947807
0.04911688670576361
0.04911827968019332
0.04911969669890747
0.04912109799739207
0.04912243646497656
0.04912367344353628
0.04912479673433104
0.04912580804786007
0.04912672878870938
0.04912756793307239
0.04912832021787541
0.04912900564663642
0.04912965492652464
0.04913031954284541
0.0491310389748856
0.04913180872052886
0.04913263443404658
0.04913352769839648
0.04913449578511767
0.04913554504543071
0.04913668220003083
0.04913791452562336
0.04913924993865468
0.04914069706220571
0.0491422652876962
0.04914396482288959
0.04914580670941311
0.04914780278373125
0.04914996554272301
0.04915230785884807
0.04915484247037989
0.04915758115028342
0.04916053343519886
0.04916370477772642
0.04916709397673788
0.04917068974868394
0.04917446633767893
0.04917837816078362
0.04918235367865176
0.0491862884727978
0.0491900362380344
0.04919340342124389
0.04919618115530127
0.04919810967344349
0.04919830805599064
0.04919662710309454
0.04919961630730829
0.04918354808166901
0.04915187217015986
0.04932337842269079
0.04863703965828734
0.04826400329209969
0.04826400492465933
0.04826400682417701
0.04826400870531575
0.04826401061898105
0.04826401266465078
0.04826401496310866
0.04826401768073425
0.04826402102573696
0.04826402522208575
0.04826403047950108
0.04826403696959862
0.0482640448050361
0.04826405406504365
0.04826406480552618
0.04826407723679739
0.04826409173263833
0.04826410860849449
0.04826412816200168
0.04826415069517802
0.048264176418673
0.04826420530057157
0.04826423738380838
0.04826427315342114
0.0482643132312189
0.04826435813179422
0.04826440834513567
0.0482644644140294
0.04826452694664132
0.04826459661639525
0.04826467416626342
0.04826476041624236
0.04826485627185066
0.04826496273332285
0.04826508090574013
0.0482652120102789
0.04826535739667867
0.04826551855701067
0.0482656971408091
0.04826589497159141
0.04826611406472094
0.04826635664645663
0.04826662517387296
0.04826692235507909
0.04826725116872117
0.04826761488107494
0.04826801705881114
0.04826846157740198
0.04826895262626535
0.04826949469096947
0.04827009242336868
0.04827075029447428
0.04827147245873584
0.04827226527577556
0.04827314530757737
0.04827412989204236
0.04827522048453752
0.04827640799654021
0.04827767933360898
0.04827901682672602
0.04828039520273885
0.04828177974478286
0.0482831269604584
0.04828438755507192
0.04828551974109601
0.04828651618114974
0.0482874168417664
0.04828826724690074
0.04828902863678809
0.04828966520941437
0.04829022301801941
0.04829079925186604
0.04829143361167348
0.04829210613554846
0.04829282204046999
0.04829358920489953
0.04829441101659592
0.04829528997614455
0.04829622830886655
0.04829722791325482
0.04829829026853546
0.04829941631526651
0.04830060631672239
0.04830185970393555
0.04830317490489194
0.04830454915741052
0.04830597830321496
0.04830745655603955
0.04830897622794926
0.04831052738362562
0.04831209737047655
0.04831367014214825
0.04831522525333948
0.04831673634537793
0.04831816887958358
0.04831947703557096
0.0483205999738534
0.04832145410750219
0.04832191361201385
0.04832183811283541
0.04832121238914033
0.04831933250909231
0.04831422369140456
0.04831592584697277
0.04830661247936623
0.04824289930912006
0.04848252178806105
0.04764736317160499
0.04750899876578867
0.04750900022219158
0.04750900191675773
0.04750900359479346
0.04750900530115162
0.04750900712333757
0.04750900916718655
0.04750901157905134
0.0475090145431644
0.04750901825885982
0.04750902291408158
0.04750902866539908
0.04750903562278369
0.04750904385868497
0.04750905340639095
0.04750906444661065
0.04750907732094536
0.04750909231479537
0.0475091096943948
0.04750912973053122
0.04750915261770693
0.04750917833990273
0.04750920693111874
0.04750923880060032
0.04750927450060446
0.04750931450280811
0.04750935924759905
0.04750940921954338
0.04750946496188009
0.04750952707673029
0.04750959622845633
0.04750967315027919
0.04750975865187372
0.04750985362740483
0.04750995906454188
0.04751007605430752
0.04751020580199294
0.04751034963917558
0.04751050903689553
0.04751068562002822
0.04751088118284725
0.04751109770570108
0.04751133737262129
0.04751160258953261
0.0475118960025118
0.04751222051517675
0.04751257930373051
0.04751297582732032
0.04751341383223297
0.04751389735173463
0.04751443069831415
0.04751501838789027
0.0475156648380493
0.04751637402317494
0.04751715084044884
0.04751800728630523
0.04751896081233999
0.04752001539146691
0.04752116225270052
0.04752239265384415
0.0475236937697743
0.04752504466935046
0.04752641413273577
0.04752775962457156
0.04752902757234195
0.04753016362661983
0.04753115064446377
0.04753204596824084
0.04753293391048573
0.04753372857716719
0.04753433314153183
0.04753484286781268
0.04753540754814873
0.04753602905886276
0.04753668473566478
0.04753738298878577
0.04753812889387211
0.04753892438062818
0.04753977077673432
0.04754066891118375
0.04754161897817302
0.04754262035018655
0.04754367134455888
0.04754476894109569
0.0475459084426855
0.04754708307109799
0.04754828349070102
0.04754949725371607
0.04755070816206304
0.04755189554220748
0.04755303342944808
0.04755408965536528
0.04755502482749203
0.04755579116744224
0.04755633105002678
0.04755657505421793
0.04755644072861816
0.04755583201370016
0.04755461436611589
0.04755258895584791
0.04754981803048163
0.04754617481615291
0.04753766184246568
0.04753517201547003
0.04753494874259277
0.04743387861315041
0.04774404128402265
0.04675212707574797
0.04681766829553587
0.04681766961258148
0.04681767114500859
0.04681767266238685
0.04681767420485812
0.04681767585060954
0.0468176776938748
0.04681767986537638
0.04681768253047983
0.04681768586901447
0.04681769005148923
0.0468176952220931
0.04681770148752511
0.04681770891448524
0.04681771752006968
0.04681772746225035
0.04681773905602978
0.04681775256224713
0.04681776822177975
0.04681778628002555
0.04681780691752104
0.04681783012969758
0.04681785594521025
0.04681788471560733
0.04681791693660715
0.04681795304374992
0.04681799343724218
0.04681803855485658
0.04681808888764005
0.04681814498020966
0.04681820743368652
0.04681827691154627
0.04681835414646203
0.0468184399476862
0.0468185352091299
0.04681864091829038
0.04681875816610935
0.04681888815782519
0.04681903222487772
0.04681919183789234
0.0468193686208314
0.04681956436613661
0.04681978105094101
0.04682002085399919
0.04682028617304308
0.04682057964196801
0.046820904146936
0.04682126283992442
0.04682165914757653
0.04682209677348631
0.04682257969446205
0.0468231121473457
0.04682369855878452
0.04682434329043469
0.04682505031829778
0.04682582437297442
0.04682667597176016
0.04682761894681415
0.04682865707702789
0.04682978466660512
0.04683099433128408
0.04683227468219466
0.04683360671311704
0.04683496120205973
0.04683629634956087
0.04683755528336168
0.04683867784527215
0.0468396546548883
0.04684056733741999
0.0468414237630741
0.04684213889638699
0.04684266971194268
0.04684315895150183
0.04684373530301362
0.04684435392746289
0.04684500756445863
0.0468457051795294
0.04684644954026457
0.04684724201142269
0.04684808352592217
0.0468489744481858
0.04684991441187518
0.04685090210897964
0.04685193502537864
0.04685300911380315
0.04685411839016714
0.04685525443570713
0.04685640578374171
0.04685755716605963
0.04685868859007471
0.04685977421387106
0.04686078098113974
0.046861666978827
0.04686237950656785
0.04686285276949052
0.04686300460150737
0.04686273305489238
0.04686192059273697
0.04686042055251764
0.04685794327594314
0.04685440557648266
0.04685050438668961
0.04684069615162553
0.04683327773157903
0.04684646965074653
0.04670569166845576
0.04709052405336279
0.04593706155027332
0.04617774043448662
0.04617774163938752
0.04617774304132383
0.04617774442939855
0.04617774584000918
0.04617774734395057
0.04617774902627236
0.04617775100527302
0.04617775343126341
0.04617775646836529
0.04617776027299152
0.04617776497908988
0.04617777069003121
0.04617777746776359
0.04617778531755749
0.04617779437955594
0.04617780494668665
0.04617781725962563
0.04617783153866323
0.04617784800850929
0.04617786683785693
0.04617788803045295
0.04617791161097221
0.04617793788588169
0.04617796730513309
0.04617800027398835
0.04617803715971049
0.04617807836192688
0.04617812432905149
0.0461781755587186
0.04617823260027721
0.04617829606008177
0.04617836660776342
0.0461784449829987
0.04617853200291291
0.04617862857026107
0.04617873568246669
0.0461788544415796
0.04617898606521235
0.04617913189850668
0.04617929342716073
0.04617947229151467
0.04617967030164008
0.04617988945329968
0.04618013194452764
0.04618040019241995
0.04618069684950491
0.046181024818726
0.04618138726541029
0.04618178762355142
0.04618222959396327
0.04618271713792223
0.04618325447542242
0.04618384603754456
0.04618449610059778
0.04618520789365972
0.04618598419225364
0.04618683933290009
0.04618778743963522
0.04618882617152818
0.04618994973669512
0.04619115131800201
0.04619241996349291
0.0461937377465209
0.04619507851442762
0.04619640416355279
0.04619765134048558
0.04619873149582798
0.04619960648266837
0.04620048837819404
0.04620137767458368
0.04620202857094999
0.04620247378071156
0.0462029724890051
0.04620354761163704
0.04620415295633377
0.04620479577804289
0.04620548120547161
0.04620621060266362
0.0462069847587417
0.04620780391795942
0.04620866763567286
0.04620957458821844
0.04621052233094487
0.04621150700186113
0.04621252295781438
0.04621356232697112
0.04621461445733413
0.04621566523547335
0.04621669624269134
0.04621768370747386
0.04621859719967981
0.04621939799112763
0.04622003703823818
0.04622045264190898
0.04622056699764018
0.04622027973893108
0.04621947144490939
0.04621802168271722
0.04621563014600446
0.0462119220736046
0.0462084977938438
0.0461993851516088
0.04618644978355124
0.04621754119161207
0.046036164232414
0.0465000462696916
0.04518438569276496
0.04558211610464977
0.04558211721783448
0.04558211851304764
0.04558211979537547
0.04558212109818264
0.04558212248627368
0.04558212403726208
0.04558212585932344
0.04558212809039777
0.04558213088167833
0.04558213437804599
0.04558213870477896
0.0455821439589764
0.04558215018814906
0.04558215739823892
0.04558216573040801
0.04558217545194019
0.0455821867823042
0.04558219992420524
0.04558221508563874
0.0455822324254689
0.04558225195364251
0.04558227369139584
0.04558229790936444
0.04558232502051492
0.04558235540470561
0.04558238940198158
0.04558242738063437
0.04558246975404879
0.04558251698121225
0.04558256956886501
0.04558262807632903
0.04558269312130427
0.04558276538613025
0.04558284562463027
0.04558293466967725
0.04558303344155961
0.0455831429572074
0.04558326434033973
0.0455833988325885
0.04558354780564037
0.04558371277441352
0.04558389541124607
0.04558409756101441
0.04558432125700955
0.04558456873727344
0.0455848424609219
0.04558514512373715
0.04558547967192075
0.04558584931220181
0.04558625751575121
0.04558670801453396
0.04558720479381906
0.04558775207718636
0.04558835421892423
0.04558901528221511
0.04558973859463696
0.0455905290596243
0.04559140392660714
0.04559237157584596
0.04559342239194936
0.04559455174746683
0.04559575465959732
0.04559702052673222
0.04559833035214358
0.04559965567366232
0.04560095388834098
0.04560214977122876
0.04560317007777417
0.04560407120147376
0.04560497583754628
0.04560578240127693
0.04560628948077033
0.0456067013866562
0.04560722687179701
0.04560779372629181
0.04560839003117959
0.04560902494624405
0.04560970035813774
0.04561041690011097
0.0456111747246523
0.0456119733258943
0.04561281136250141
0.04561368643266495
0.04561459479808406
0.04561553104629591
0.04561648767816463
0.04561745460403446
0.04561841852766912
0.04561936219154783
0.04562026345111844
0.04562109413702764
0.04562181863051699
0.0456223920540007
0.04562275830192287
0.04562284784676923
0.04562257006340678
0.04562180807234552
0.04562047551642451
0.04561835707499427
0.04561469759507018
0.0456118167433003
0.04560488373963789
0.04558528497954847
0.04563776292154223
0.04541499169646233
0.04596095178713586
0.0444869158311359
0.04502491274617311
0.04502491378342117
0.04502491499028246
0.0450249161850813
0.04502491739868655
0.04502491869096207
0.04502492013335609
0.04502492182556649
0.04502492389505999
0.04502492648208106
0.04502492972198464
0.04502493373220668
0.04502493859731999
0.04502494433299714
0.045024950967217
0.0450249586707703
0.04502496767317098
0.04502497816773677
0.04502499034149013
0.04502500438894613
0.04502502046075136
0.04502503857168096
0.04502505874029695
0.04502508120828018
0.04502510635784678
0.04502513454700176
0.04502516609285541
0.04502520133749209
0.0450252406649894
0.04502528450201163
0.04502533331967042
0.0450253876379811
0.04502544803126506
0.0450255151339898
0.04502558964714996
0.04502567234532468
0.0450257640844875
0.04502586581062898
0.04502597856925404
0.045026103515813
0.04502624192711684
0.04502639521376746
0.04502656493360597
0.04502675280613527
0.04502696072780418
0.0450271907879428
0.04502744528499876
0.04502772674253068
0.04502803792412947
0.04502838184595916
0.04502876178495243
0.04502918128071701
0.04502964413164418
0.04503015438553597
0.04503071629062567
0.04503133407691847
0.04503201155411187
0.04503275272888138
0.04503356740104486
0.04503446693507524
0.04503545284252147
0.04503652040240393
0.04503766440294375
0.04503887758712106
0.04504014796136446
0.04504145774390128
0.04504277955597781
0.04504405555482113
0.04504517539629348
0.04504606995115708
0.04504699457912088
0.04504795765024351
0.04504861751120267
0.04504899528312498
0.04504946029697997
0.04505000469051463
0.04505057456897299
0.04505118003226739
0.04505182497351255
0.04505251025259983
0.04505323632958753
0.04505400308422863
0.04505480966735811
0.04505565430600229
0.04505653405541116
0.04505744449508825
0.04505837935690468
0.04505933006995075
0.04506028520329529
0.04506122978289212
0.04506214445357001
0.04506300445725665
0.04506377837618603
0.04506442646405521
0.04506489869646312
0.04506513395389664
0.04506505425658579
0.04506454401419866
0.04506352814001474
0.04506195056890237
0.04505865824637036
0.04505621965248795
0.04505280455041605
0.04502516317127582
0.04510156309226857
0.04483614384233955
0.04546295137121322
0.04384625693412493
0.04450009065360162
0.04450009162496161
0.04450009275516911
0.04450009387404615
0.04450009501031891
0.04450009621961932
0.04450009756812244
0.04450009914829769
0.04450010107864658
0.04450010349002412
0.04450010650942229
0.04450011024702864
0.0445001147773034
0.04450012009807936
0.04450012625309985
0.04450013342469281
0.04450014181188095
0.04450015158963134
0.0445001629326188
0.04450017602349213
0.04450019100533026
0.04450020789678687
0.04450022671496024
0.0445002476773579
0.04450027113904208
0.04450029743857373
0.04450032687320474
0.04450035976243022
0.04450039646506945
0.04450043737992332
0.04450048294742345
0.04450053365377689
0.044500590036039
0.0445006526876019
0.04450072226419264
0.04450079949050972
0.04450088516757458
0.04450098018085769
0.04450108550924217
0.04450120223488713
0.0445013315540478
0.04450147478889548
0.04450163340035877
0.04450180900197198
0.0445020033746634
0.04450221848233651
0.04450245648797489
0.04450271976988488
0.0445030109373924
0.04450333284511932
0.04450368860413947
0.0445040815873322
0.04450451542697628
0.04450499401077638
0.0445055214883429
0.04450610221982469
0.04450674031847772
0.04450743858717009
0.04450819957415456
0.04450904227477333
0.04450997785723035