/*--------------------------------*- C++ -*----------------------------------*\
| =========                 |                                                 |
| \\      /  F ield         | OpenFOAM: The Open Source CFD Toolbox           |
|  \\    /   O peration     | Version:  v1812                                 |
|   \\  /    A nd           | Web:      www.OpenFOAM.com                      |
|    \\/     M anipulation  |                                                 |
\*---------------------------------------------------------------------------*/
FoamFile
{
    version     2.0;
    format      ascii;
    class       surfaceScalarField;
    location    "1792";
    object      phi;
}
// * * * * * * * * * * * * * * * * * * * * * * * * * * * * * * * * * * * * * //

dimensions      [0 3 -1 0 0 0 0];
oriented        oriented;


internalField   nonuniform List<scalar> 
21676
(
1.574689235730584e-06
2.711566534482627e-08
3.106393748095917e-06
8.166817717038019e-08
4.604851395261757e-06
1.38134158674135e-07
6.078375878699451e-06
1.98105448384058e-07
7.53399012365719e-06
2.631258583529435e-07
8.977704342350949e-06
3.345483180038629e-07
1.041500384107296e-05
4.13327587631769e-07
1.185145681437467e-05
4.999033755265295e-07
1.329317085688913e-05
5.943553947057639e-07
1.474687300721111e-05
6.967843011336493e-07
1.621961310482802e-05
8.076935817025805e-07
1.771829916001583e-05
9.281635084010136e-07
1.924954696939217e-05
1.059543669312667e-06
2.081964929233956e-05
1.203341044922454e-06
2.243457192465544e-05
1.361201659396481e-06
2.410006984926385e-05
1.53480003108855e-06
2.582171327059713e-05
1.725939858007527e-06
2.760487659606704e-05
1.936602762722749e-06
2.945472868074394e-05
2.168959926334455e-06
3.137622977735108e-05
2.425379576987357e-06
3.337411569677631e-05
2.708455377582057e-06
3.545287427300628e-05
3.021031228644666e-06
3.761671439290001e-05
3.366227453410888e-06
3.986952706591817e-05
3.747469275181226e-06
4.221483810080736e-05
4.16851765151802e-06
4.465575189633219e-05
4.633502684276594e-06
4.719488586795009e-05
5.146959765108935e-06
4.983429514943922e-05
5.713868538912701e-06
5.257538725410631e-05
6.339694842347168e-06
5.541882658121453e-05
7.030435658894662e-06
5.836442891272748e-05
7.792667066509617e-06
6.141104657639422e-05
8.633594933321159e-06
6.455644625208461e-05
9.561107361322837e-06
6.779718439377331e-05
1.058382618534336e-05
7.112849114145161e-05
1.171115202031241e-05
7.454418248686603e-05
1.295329430659395e-05
7.803662738591011e-05
1.432127988893935e-05
8.159678305377476e-05
1.582695400915948e-05
8.52142370834399e-05
1.748304884035109e-05
8.887700590379703e-05
1.930350919062582e-05
9.257053062931299e-05
2.130438448349044e-05
9.627728918349447e-05
2.350330978582038e-05
9.997715144509938e-05
2.591886873740953e-05
0.0001036471646058205
2.857127871527837e-05
0.0001072614245857108
3.148243039617518e-05
0.0001107910527439024
3.46759192308635e-05
0.0001142042618263203
3.817710513356857e-05
0.0001174664951682406
4.201320135504351e-05
0.0001205407319720808
4.621328494220195e-05
0.0001233884753407138
5.080780617030756e-05
0.0001259724875517839
5.582705054092199e-05
0.0001282617426734817
6.129914925525828e-05
0.0001302360310469052
6.725067535860551e-05
0.0001318822327968481
7.371524472904483e-05
0.0001331854916405671
8.073890973339701e-05
0.0001341329279701335
8.836794003041347e-05
0.0001347235360134549
9.664298683674753e-05
0.0001349706982193237
0.0001056068451239442
0.0001349037803797441
0.0001153057857296268
0.0001345681895651285
0.0001257915422646461
0.0001340222865179176
0.0001371249459573233
0.0001333298648495207
0.0001493808918183586
0.0001325486214892802
0.0001626529274203668
0.0001317166840827921
0.0001770558275564168
0.0001308410651957109
0.0001927243549471922
0.000129899390536079
0.0002098007347197502
0.0001288643757059748
0.0002284127207902362
0.0001277252343714721
0.0002486775515946655
0.0001264813441509716
0.0002707306581906097
0.0001251288009011743
0.0002947338272397162
0.0001236599190232604
0.0003208633997379742
0.0001220667421633979
0.0003493075067399751
0.0001203417079802872
0.0003802702720731477
0.0001184773128149517
0.0004139742892253559
0.0001164660994879698
0.0004506619063369608
0.0001143007907410889
0.0004905968309469509
0.0001119744138241636
0.0005340660445969495
0.0001094804282107893
0.0005813818744134573
0.0001068128693260017
0.0006328842357748619
0.0001039665066223633
0.0006889430768336766
0.0001009370128531812
0.0007499610443592419
9.772114083823584e-05
0.0008163763904850344
9.431690233859055e-05
0.0008886661434696995
9.072374156044103e-05
0.0009673495668782192
8.694269337761355e-05
0.001052991935482898
8.297651355922963e-05
0.001146208657018487
7.882976511995696e-05
0.001247669772239376
7.450884136377391e-05
0.001358104870656298
7.002190231005366e-05
0.001478308459453846
6.537869689778926e-05
0.001609145827412388
6.059023852824612e-05
0.001751559452669693
5.56682957897967e-05
0.0019065760024386
5.062465284942829e-05
0.00207531398364051
4.547008359521756e-05
0.0022589921061544
4.021296756292309e-05
0.002458938435532485
3.485744943279897e-05
0.002676600422830307
2.940099950274643e-05
0.002913555925730268
2.383115648517928e-05
0.00317152537371779
1.812110341425251e-05
0.00345238528687115
1.222350086383291e-05
0.003758183467350663
6.061586851916851e-06
0.004091156372112172
-4.842786472325585e-07
0.004453749608199411
-7.595615024245465e-06
0.004848640829377277
-1.554571462527817e-05
0.005278769519201312
-2.471801763656166e-05
0.005747346037811564
-3.62764631569546e-05
0.006258525986420784
-9.910869425918879e-05
0.006863707436502595
0.007304788200340844
4.980335279199622e-09
2.213533007134931e-08
1.95999354704341e-08
6.704857696146007e-08
4.382602248476287e-08
1.139080716491647e-07
7.78820057870214e-08
1.640494650898426e-07
1.221931381086334e-07
2.188147259967876e-07
1.77288987304097e-07
2.794524688212921e-07
2.436740646043424e-07
3.469425102539905e-07
3.217448179289083e-07
4.218326221958662e-07
4.11841251089448e-07
5.042589615788358e-07
5.144084288780822e-07
5.942171233368496e-07
6.30201672519239e-07
6.919003381034674e-07
7.604878424603364e-07
7.978773384641346e-07
9.069468919257063e-07
9.130846198402576e-07
1.07139210674027e-06
1.038895830114738e-06
1.25573281576066e-06
1.176860950365283e-06
1.462072592293894e-06
1.328460254526552e-06
1.692766395372773e-06
1.495246054879425e-06
1.950454493519738e-06
1.678914664598852e-06
2.238082678440509e-06
1.88133174140712e-06
2.55890416157025e-06
2.104558093831877e-06
2.916461343083002e-06
2.350898196065894e-06
3.314529417591657e-06
2.622963154150498e-06
3.757151181637154e-06
2.923605689366241e-06
4.248720402378095e-06
3.25590005443298e-06
4.79400217631398e-06
3.623235877582986e-06
5.39815076772222e-06
4.029354092881619e-06
6.066724102945419e-06
4.478386429916624e-06
6.805693863683899e-06
4.974898778208743e-06
7.621449946757386e-06
5.523938759291458e-06
8.520797746262772e-06
6.131087859372953e-06
9.510946377747512e-06
6.802518434999754e-06
1.059948544151315e-05
7.545055869565723e-06
1.179434673739835e-05
8.366246065444785e-06
1.310374458297753e-05
9.274428339770874e-06
1.453608281693375e-05
1.027881378637158e-05
1.609980783640853e-05
1.138956928711407e-05
1.780317966110058e-05
1.26179080642395e-05
1.965394477292442e-05
1.397618889730377e-05
2.165896595334193e-05
1.547802765989838e-05
2.382393918495886e-05
1.713853595903706e-05
2.615350298073654e-05
1.897482068768827e-05
2.865086421581941e-05
2.100594855071931e-05
3.131712454940459e-05
2.325260840382485e-05
3.415111035640178e-05
2.573729290830245e-05
3.714905942461597e-05
2.848448132795935e-05
4.030415310008744e-05
3.152082555540862e-05
4.360590906992249e-05
3.487534916370065e-05
4.703945809223259e-05
3.857965233276098e-05
5.058474323411233e-05
4.266799980032809e-05
5.421568227312617e-05
4.717686713127768e-05
5.789928583951044e-05
5.214344697457157e-05
6.159465934594567e-05
5.7603775748828e-05
6.525186780574953e-05
6.35934668987823e-05
6.881124036820142e-05
7.015587216661517e-05
7.220396668203447e-05
7.73461834196259e-05
7.535568833116831e-05
8.521621838120645e-05
7.819591510271728e-05
9.380276006508995e-05
8.066856421644699e-05
0.000103134196010226
8.272305426736072e-05
0.000113251295678682
8.430750831962228e-05
0.0001242070882123945
8.539032707795418e-05
0.0001360421271992526
8.598343273383803e-05
0.0001487877861625224
8.615394888326921e-05
0.0001624824112710348
8.602194926107717e-05
0.00017718782717863
8.573360396960518e-05
0.000193012700238804
8.541321054785574e-05
0.0002101211281421665
8.511803399800441e-05
0.0002287078973402618
8.483411357535409e-05
0.0002489614720171929
8.453392125979938e-05
0.0002710308505059315
8.421253328100807e-05
0.0002950552152183187
8.387104738316305e-05
0.0003212048856359842
8.350665622653634e-05
0.000349671897897238
8.311497397174149e-05
0.0003806619543276135
8.269115908068837e-05
0.0004143981041170142
8.222957384778956e-05
0.0004511234915699176
8.172357241259401e-05
0.000491102832382143
8.116540526396617e-05
0.0005346242117455307
8.054610808830461e-05
0.0005820011715893566
7.985538164645932e-05
0.0006335749622171039
7.908147509878122e-05
0.0006897169833812466
7.821107704352674e-05
0.000750831442414451
7.722921947791848e-05
0.0008173582480510966
7.611920172950998e-05
0.0008897761612184646
7.486254177772628e-05
0.0009686062268302199
7.343896373515401e-05
0.001054415513525711
7.182642987424377e-05
0.001147821190879615
7.000122529110596e-05
0.001249494976822899
6.793810154299523e-05
0.001360167994404719
6.561048250309544e-05
0.001480636078494127
6.299073073877119e-05
0.001611765579177034
6.005046563331028e-05
0.00175449971777566
5.676091503977162e-05
0.001909865553032586
5.30932705646028e-05
0.002078981628116301
4.901900321788944e-05
0.002263066373501653
4.451008257103952e-05
0.002463447356180011
3.953903161665365e-05
0.002681571473785368
3.407874653416558e-05
0.002919016210813456
2.81020248100671e-05
0.003177502095442631
2.1580794486594e-05
0.003458906517195367
1.448516706351092e-05
0.003765279094774602
6.782740026786907e-06
0.004098858799149737
-1.560162116679454e-06
0.004462092510343772
-1.057778857397328e-05
0.004857658455835501
-2.029803771969854e-05
0.005288489768348031
-3.061260819380428e-05
0.005757660608286732
-4.206464643397828e-05
0.006269978024662353
-9.298172731776721e-05
0.006914624517387621
0.007211806473023151
1.112664575770434e-09
2.102266549321873e-08
4.486287353560253e-09
6.3674954173774e-08
1.02294730254182e-08
1.081648859676268e-07
1.852248724128553e-08
1.557564508898179e-07
2.960636334902841e-08
2.07730849838595e-07
4.374968102370504e-08
2.653091511599976e-07
6.118714746942981e-08
3.295050437734013e-07
8.20530607681216e-08
4.00966708948989e-07
1.063632089939031e-07
4.799488133416424e-07
1.34072379111023e-07
5.665079531820797e-07
1.651640036930473e-07
6.608087135089637e-07
1.997121305385847e-07
7.633292116024836e-07
2.379015521603348e-07
8.74895198268989e-07
2.800455440477891e-07
9.967518382483637e-07
3.265441944631918e-07
1.13036229991481e-06
3.778593164411727e-07
1.277145132562729e-06
4.345503858085263e-07
1.43855498549318e-06
4.972916309057789e-07
1.616173419509415e-06
5.6688780726481e-07
1.811735565046108e-06
6.442902070705707e-07
2.027155694026311e-06
7.306066426505897e-07
2.264581760470642e-06
8.270791601615492e-07
2.526490636653874e-06
9.350548124929898e-07
2.81563003700034e-06
1.056040807329835e-06
3.134914059596525e-06
1.191784010648554e-06
3.487492674265571e-06
1.344309611671715e-06
3.876828491842768e-06
1.515964156186291e-06
4.306731885414048e-06
1.709463226764633e-06
4.781399707649391e-06
1.92794393158316e-06
5.305458054484162e-06
2.17502218888725e-06
5.88400960206598e-06
2.454854536947148e-06
6.522686086943755e-06
2.772203822738117e-06
7.227706583789183e-06
3.13250758243202e-06
8.005942305725704e-06
3.541947193784849e-06
8.86498872842077e-06
4.0075149942699e-06
9.813245985899268e-06
4.537075713276222e-06
1.086000856808892e-05
5.139418199794491e-06
1.201556557772702e-05
5.824294113736461e-06
1.329131298337185e-05
6.602442132611214e-06
1.469987964100891e-05
7.485609106145483e-06
1.625536898550902e-05
8.486590072770537e-06
1.797383972106512e-05
9.619215309576055e-06
1.987332331390645e-05
1.089823552331325e-05
2.197358819010162e-05
1.233914836627999e-05
2.429638006534906e-05
1.39579554096674e-05
2.686567428459179e-05
1.577084702175897e-05
2.970793394330717e-05
1.779280086906945e-05
3.285339531638877e-05
2.003618221008717e-05
3.633627099171882e-05
2.251057894705691e-05
4.019360306336376e-05
2.522199376483686e-05
4.44654523135114e-05
2.81704031501451e-05
4.919503758929313e-05
3.13452328010044e-05
5.442894609796781e-05
3.472106251783526e-05
6.021763718191888e-05
3.826080265291386e-05
6.661613203156361e-05
4.192353844170768e-05
7.368344763083371e-05
4.566093001663979e-05
8.147882680626834e-05
4.940729568774419e-05
9.005639439405583e-05
5.307671080045267e-05
9.946478089754425e-05
5.656606013936634e-05
0.0001097619463397941
5.976532651314994e-05
0.0001210078218385151
6.2569326605529e-05
0.0001332381271070177
6.486937738256186e-05
0.0001464877353855899
6.655204436609487e-05
0.0001607997442875296
6.754781770149601e-05
0.0001761920538434936
6.789243683930127e-05
0.0001926680811008943
6.774728317842437e-05
0.0002102662818030717
6.734371318427406e-05
0.0002291114673342212
6.686918159246975e-05
0.0002494360036088191
6.63848643560491e-05
0.0002715151677426945
6.586928607480439e-05
0.0002955707934997294
6.530884112028333e-05
0.0003217653305905127
6.470247975271477e-05
0.0003502782592648853
6.404806551591781e-05
0.0003813163685645516
6.334252868951262e-05
0.0004151036409434203
6.258284901124669e-05
0.0004518831712481212
6.176595036972643e-05
0.0004919197310237032
6.088862805356777e-05
0.0005355015340619592
5.994753353286074e-05
0.0005829422661103014
5.89391406022666e-05
0.0006345833551479887
5.785969349224436e-05
0.0006907964304912074
5.670513680983404e-05
0.0007519859990969146
5.547102285898136e-05
0.0008185923620023203
5.41523920055575e-05
0.0008910947920722182
5.274362237788764e-05
0.000970014996458139
5.123824522150482e-05
0.001055920890682428
4.962872412120445e-05
0.00114943071198028
4.790619764800542e-05
0.001251217503296415
4.606018804052838e-05
0.00136201400401271
4.407828216408425e-05
0.001482617984371011
4.194579568592564e-05
0.001613898065655895
3.964543700804864e-05
0.001756800076454038
3.715699275402731e-05
0.0019123539972872
3.445706544361307e-05
0.002081681555427403
3.15188935742122e-05
0.002266004545371692
2.831229459024531e-05
0.002466653955164623
2.480376537898354e-05
0.002685080002997396
2.095677228429297e-05
0.002922863203908992
1.673224808279163e-05
0.003181726619644939
1.208928062742927e-05
0.003463549484651694
6.985904078156348e-06
0.003770382471324833
1.38001124342367e-06
0.004104464691985505
-4.770888826928308e-06
0.004468243410415206
-1.151091808408345e-05
0.004864398485093751
-1.890013807587256e-05
0.005295878988341004
-2.69740923059038e-05
0.005765734562517988
-3.703520926823704e-05
0.006280039141626111
-7.842160683340543e-05
0.006956010914953984
0.007133384866189816
7.581807200493875e-10
2.026448477671809e-08
3.054759663575508e-09
6.137837523240782e-08
6.955845157528229e-09
1.042638004904463e-07
1.257108709633e-08
1.501412089347259e-07
2.004790467176514e-08
2.002540322587159e-07
2.955373169417419e-08
2.558033241625086e-07
4.124234478603315e-08
3.178164306825468e-07
5.521457693417957e-08
3.869944767647358e-07
7.150159429289613e-08
4.636617960042891e-07
9.009032056697482e-08
5.479192269173264e-07
1.109728468527266e-07
6.39926187223425e-07
1.341850420678606e-07
7.401170164192589e-07
1.598211185934364e-07
8.4925912175752e-07
1.880534159087088e-07
9.685195409257768e-07
2.190920913815916e-07
1.099323624453443e-06
2.531541148223393e-07
1.243083109116355e-06
2.904890937149549e-07
1.401220006595847e-06
3.31385263705834e-07
1.575277249524676e-06
3.761742783695774e-07
1.76694655037582e-06
4.252428986249648e-07
1.97808707379181e-06
4.790652376717748e-07
2.210759421422604e-06
5.382497586455082e-07
2.467306115678348e-06
6.034606406666233e-07
2.750419154975868e-06
6.753795314473373e-07
3.062995168815031e-06
7.547771737810676e-07
3.408095031918118e-06
8.425269594938656e-07
3.789078706128975e-06
9.396209622639649e-07
4.209637882635476e-06
1.047188803343377e-06
4.673831866560041e-06
1.166519749513831e-06
5.186127108321074e-06
1.299088494493506e-06
5.751440857092212e-06
1.446585116565594e-06
6.375189464864566e-06
1.610949739624121e-06
7.063341960730111e-06
1.794412455033961e-06
7.822479590302451e-06
1.999539083961511e-06
8.65986209950635e-06
2.229283379722866e-06
9.5835016901421e-06
2.487046296238514e-06
1.060224565156681e-05
2.776742998987125e-06
1.172586887497379e-05
3.10287840391357e-06
1.296517757843879e-05
3.470632270140565e-06
1.433212577477671e-05
3.886055044324535e-06
1.583994621131856e-05
4.356597448286574e-06
1.750329731711223e-05
4.891494047992727e-06
1.933842671421271e-05
5.501728903399864e-06
2.136335333466537e-05
6.200036936617447e-06
2.359807203213971e-05
7.000927372562778e-06
2.60647838486271e-05
7.920705373762548e-06
2.878815594211964e-05
8.977555734096334e-06
3.179654495605337e-05
1.0191547142257e-05
3.512227958355409e-05
1.158437385973279e-05
3.880077634591217e-05
1.317858326070878e-05
4.287124291254573e-05
1.499524238353918e-05
4.737837846643803e-05
1.705171006872045e-05
5.237247841280318e-05
1.936112569403114e-05
5.790822155662574e-05
2.193223113594104e-05
6.404502658966054e-05
2.476837269723192e-05
7.08473060695459e-05
2.786256757382571e-05
7.838463192967263e-05
3.118726464435641e-05
8.673169732352384e-05
3.468493392027043e-05
9.596711162163355e-05
3.827793280070595e-05
0.0001061689474593741
4.187954030271581e-05
0.0001174062143364549
4.538609761036668e-05
0.0001297315697994375
4.867737239223171e-05
0.0001431964606037335
5.162536870572729e-05
0.0001578517479740624
5.408298671767604e-05
0.0001737344358316188
5.588140902706461e-05
0.0001908696587917337
5.690658435318319e-05
0.0002092411064769039
5.721201811295723e-05
0.0002288060335746155
5.704100854911145e-05
0.0002496070131726244
5.668914253651715e-05
0.0002718670337551503
5.631004904525429e-05
0.0002959498869912686
5.590747590586907e-05
0.0003221679037298769
5.546622893916846e-05
0.0003507195062315157
5.498286766099918e-05
0.0003817997298429759
5.445408639481002e-05
0.0004156324222098888
5.387566813192879e-05
0.0004524615895108986
5.324309708907283e-05
0.0004925523020668911
5.255152812618697e-05
0.0005361931030251946
5.179575197266435e-05
0.0005836980422641068
5.097019121439907e-05
0.0006354089159063688
5.006889758302831e-05
0.0006916977241226017
4.908555297625236e-05
0.0007529693437040823
4.801347505376931e-05
0.0008196644399250281
4.684562657013831e-05
0.0008922626405560161
4.55746269455461e-05
0.0009712859960831376
4.419276347250289e-05
0.001057302754155825
4.269199812018907e-05
0.001150931477332957
4.106396416939039e-05
0.001252845537247693
3.929994498305222e-05
0.001363778023199427
3.73908251947951e-05
0.001484527104159779
3.532700271964032e-05
0.001615961888131503
3.309824856250786e-05
0.001759028830611723
3.069350078381931e-05
0.001914758745066487
2.810057958328391e-05
0.002084274476628479
2.530581252169924e-05
0.00226879931243388
2.229356240856358e-05
0.00246966620527842
1.904565458707758e-05
0.002688327910819552
1.554070372134397e-05
0.002926368154775475
1.175334190919456e-05
0.00318551398145784
7.653346979666573e-06
0.003467649479582044
3.204610319408359e-06
0.003774831207985946
-1.636612224097769e-06
0.004109305914529906
-6.922994222629283e-06
0.004473529792414672
-1.271314486265763e-05
0.004870188635734758
-1.906941429590486e-05
0.00530223525777527
-2.602339185770112e-05
0.005772688540080892
-3.521823315928079e-05
0.006289233982928918
-6.743335634181699e-05
0.006988226038137523
0.00706595150984806
5.316225508612148e-10
1.973286222054623e-08
2.142039449938581e-09
5.976795832005045e-08
4.877726226064899e-09
1.015281137097516e-07
8.8158447976382e-09
1.462030903407156e-07
1.406078229926706e-08
1.950090947504116e-07
2.073311598306559e-08
2.491309904927569e-07
2.894802793235273e-08
3.096015187140042e-07
3.878878927218629e-08
3.771537154245401e-07
5.029309119560023e-08
4.521574940502591e-07
6.346700183652173e-08
5.347453162748124e-07
7.831752267519659e-08
6.250756663547755e-07
9.488057971114058e-08
7.235539593923471e-07
1.132332471802133e-07
8.309064542920736e-07
1.335181762104967e-07
9.482346118637984e-07
1.559091569546024e-07
1.076932643685177e-06
1.805797178304175e-07
1.218412548228553e-06
2.07726604912107e-07
1.374073119516801e-06
2.375744254393342e-07
1.545429429001318e-06
2.703776643534886e-07
1.734143311454963e-06
3.064244575158242e-07
1.942040280621992e-06
3.460471171212724e-07
2.1711367618039e-06
3.896496978573099e-07
2.423703534947191e-06
4.376791921630969e-07
2.702389660664946e-06
4.90603923264859e-07
3.010070437711471e-06
5.489437869328e-07
3.349755168257768e-06
6.132768006460295e-07
3.724745692405007e-06
6.842465593048737e-07
4.138668123968686e-06
7.625709956877905e-07
4.595507430185424e-06
8.490526891007679e-07
5.099645414915409e-06
9.445910245403813e-07
5.655902521651793e-06
1.050196569843901e-06
6.269583919567325e-06
1.167008116309512e-06
6.946530414257881e-06
1.296312919871834e-06
7.693174786755962e-06
1.439570786134918e-06
8.516604233243175e-06
1.598442768348419e-06
9.42462970793489e-06
1.774825389257689e-06
1.042586303064681e-05
1.970891461019851e-06
1.152980280321689e-05
2.189138753628866e-06
1.274693028581406e-05
2.432447947747201e-06
1.40888165806413e-05
2.704151478477878e-06
1.556824268059083e-05
3.008114522092402e-06
1.719933427349909e-05
3.348827406129872e-06
1.89977138301696e-05
3.731508121897582e-06
2.098067261890443e-05
4.162214917476756e-06
2.316736523656766e-05
4.647968599059926e-06
2.557903016703771e-05
5.196884138983767e-06
2.82392404021982e-05
5.81924032385373e-06
3.117418877118934e-05
6.528514985249675e-06
3.441300492215173e-05
7.341186618950104e-06
3.798810471222293e-05
8.276581109182792e-06
4.193584842232537e-05
9.356836614238679e-06
4.629812296138967e-05
1.060682791599886e-05
5.112248711104955e-05
1.205258828934606e-05
5.646246118328044e-05
1.371890572970153e-05
6.237870914931894e-05
1.562809308809298e-05
6.893811871115092e-05
1.779882653178095e-05
7.621389848598946e-05
2.024415329369749e-05
8.42863705616148e-05
2.296792006598407e-05
9.324334484934586e-05
2.595741569921572e-05
0.000103179451826135
2.91701313702321e-05
0.0001141934986654393
3.252049994038988e-05
0.0001263812012293164
3.589426488649342e-05
0.0001398226956576487
3.917478838980387e-05
0.0001545712244707746
4.224333837425588e-05
0.0001706658858472367
4.496605009356736e-05
0.0001881469470724222
4.714833608317924e-05
0.000207058820487393
4.856832567701095e-05
0.0002273860439809266
4.915518636980214e-05
0.0002490201524800472
4.911489249756658e-05
0.000271907327627226
4.881414689732407e-05
0.0002962506325914116
4.847257338579228e-05
0.0003225094772413534
4.811103230828676e-05
0.0003510810473088891
4.771703074461218e-05
0.000382193731407003
4.72872426029783e-05
0.0004160622103514664
4.681876125390722e-05
0.0004529300708600308
4.63079972509181e-05
0.0004930630660700441
4.575101351734024e-05
0.0005367500867591047
4.514349295653362e-05
0.0005843055628248361
4.44806884159863e-05
0.0006360717204471617
4.375737964509599e-05
0.0006924210328936184
4.296782686710874e-05
0.0007537588964823318
4.210572188813773e-05
0.0008205265449043072
4.116413786935135e-05
0.0008932042245750781
4.013547895486516e-05
0.0009723146549979291
3.901143133886385e-05
0.001058426801772054
3.778291762157006e-05
0.001152159991050559
3.644005641169867e-05
0.001254188398457981
3.497212896065817e-05
0.00136524595065078
3.33675539954285e-05
0.001486131679125396
3.16138706661628e-05
0.001617715571461253
2.969772745385612e-05
0.001760944973824513
2.760487183999778e-05
0.001916851600680839
2.532013148414813e-05
0.002086559216984849
2.282737273532868e-05
0.002271292071183251
2.010941703943487e-05
0.002472384160974899
1.714789104897082e-05
0.002691289436810648
1.392298275202393e-05
0.002929593063073109
1.041307665321956e-05
0.003189023887557381
6.594267567039854e-06
0.003471468288668954
2.439811002408115e-06
0.003778985664551418
-2.080574275618919e-06
0.004113826299808753
-7.002542252347803e-06
0.004478451760392251
-1.236578408974122e-05
0.004875551877573013
-1.819439720026534e-05
0.005308063870886721
-2.446303293552441e-05
0.005778957175817106
-3.302230493205621e-05
0.006297793254926525
-5.710286621255872e-05
0.007012306599418895
0.007008848643635566
3.976534751526302e-10
1.933520874593493e-08
1.602146389572375e-09
5.856346541367604e-08
3.648169329614623e-09
9.948209078309551e-08
6.593457527373889e-09
1.432578021274835e-07
1.051646016540346e-08
1.910860921187635e-07
1.550868806214893e-08
2.44138762585566e-07
2.165939290443359e-08
3.034508138693378e-07
2.903604076577462e-08
3.69777067552244e-07
3.767297998077308e-08
4.435205548575895e-07
4.75799024390961e-08
5.248383938136586e-07
5.876522118896812e-08
6.138903476091754e-07
7.125766378623386e-08
7.110615168121194e-07
8.51166407196508e-08
8.170474773744989e-07
1.004532682417856e-07
9.328979843513394e-07
1.174035407120115e-07
1.059982371203318e-06
1.361030363058045e-07
1.199713052624628e-06
1.56705910239721e-07
1.353470245601579e-06
1.79388728429226e-07
1.522746610800853e-06
2.043521063077429e-07
1.709179933581742e-06
2.318227316969514e-07
1.914569655229805e-06
2.620577083504988e-07
2.140901785148118e-06
2.953546721547458e-07
2.390406571139526e-06
3.320502679522219e-07
2.66569406485733e-06
3.725095486408007e-07
2.969611157029786e-06
4.171309083377436e-07
3.305133808544803e-06
4.663556879238187e-07
3.67552091281656e-06
5.206730990487286e-07
4.084350712852175e-06
5.806258826395931e-07
4.535554646600641e-06
6.468168235794726e-07
5.033454473964397e-06
7.199162708095849e-07
5.582803074409087e-06
8.006708478560971e-07
6.188829342527016e-06
8.899135803979554e-07
6.857287681722639e-06
9.88575717615267e-07
7.594512649526728e-06
1.097700583591536e-06
8.40747936725941e-06
1.218459866674496e-06
9.303870424850087e-06
1.352172839115849e-06
1.029215005819714e-05
1.500329098521067e-06
1.138164654383046e-05
1.66461553701377e-06
1.258264384732356e-05
1.846948375847924e-06
1.3906483741798e-05
2.049511249712177e-06
1.536567980671882e-05
2.274800596267467e-06
1.697404492694338e-05
2.525680252796986e-06
1.874683417364286e-05
2.805447569240926e-06
2.070090530244324e-05
3.117913403127356e-06
2.285489940267709e-05
3.467498844898249e-06
2.522944472525685e-05
3.859352080081832e-06
2.784738716699788e-05
4.299489351199274e-06
3.073405150008004e-05
4.794953887150849e-06
3.39175403861963e-05
5.353980022586228e-06
3.742907857680885e-05
5.98642053654507e-06
4.130340790835822e-05
6.705305072590963e-06
4.557923842534858e-05
7.528046122396776e-06
5.029974606124323e-05
8.476203778104801e-06
5.551430352756693e-05
9.575250602463423e-06
6.127966232493865e-05
1.085236477992945e-05
6.766100453369085e-05
1.233409029565837e-05
7.473217297026105e-05
1.404618648493771e-05
8.257427437234071e-05
1.601270904990817e-05
9.127682228437457e-05
1.825330086137813e-05
0.000100938860014656
2.077733332852777e-05
0.000111669466198291
2.357233639284604e-05
0.0001235861981649745
2.658666713649829e-05
0.0001368083649139816
2.971655468505131e-05
0.0001514413369222366
3.28277574796557e-05
0.0001675546830525892
3.580085441691854e-05
0.0001851738501352011
3.852232382461758e-05
0.0002043373510796925
4.080128801932094e-05
0.000225107079786266
4.236374827189224e-05
0.0002474576922275562
4.304430141483854e-05
0.0002712267744844373
4.302534354634034e-05
0.0002962695904598636
4.272836195835764e-05
0.000322806458829392
4.239157142668742e-05
0.0003514178378408317
4.203315982161321e-05
0.0003825521430120299
4.164306103855594e-05
0.0004164523091347559
4.121822975647102e-05
0.0004533549021421558
4.075579251152271e-05
0.0004935255033150361
4.025239835016632e-05
0.000537253480920595
3.970439687644303e-05
0.0005848535642988191
3.91078100216476e-05
0.0006366683073021407
3.845829456085411e-05
0.0006930705483546087
3.775110470019009e-05
0.0007544660863431982
3.698104952802815e-05
0.0008212966000767841
3.614244468416774e-05
0.0008940428294191637
3.522905754421504e-05
0.0009732280421381484
3.423404521963695e-05
0.00105942181409686
3.314988484093965e-05
0.001153244151429566
3.196829588055239e-05
0.00125536998741864
3.068015473311893e-05
0.001366534091798528
2.927540242188082e-05
0.001487536431436978
2.774294713166995e-05
0.001619248026751895
2.6070564224063e-05
0.001762617356732525
2.424479736136481e-05
0.001918677367544008
2.225086513367771e-05
0.002088553149213058
2.007257785969418e-05
0.002273470358457758
1.769226870493019e-05
0.00247476447013022
1.509074185400874e-05
0.002693890963662149
1.224723728616973e-05
0.00293243656764159
9.139400609530002e-06
0.00319213172423469
5.743238284421469e-06
0.003474864450994714
2.033154564247834e-06
0.003782695748272321
-2.017760555914089e-06
0.004117877214929675
-6.439299321987342e-06
0.004482873299159087
-1.126720849185332e-05
0.004880379786743667
-1.651494837109211e-05
0.005313311610766771
-2.213145911678778e-05
0.005784573686563661
-3.010753767403868e-05
0.006305769333484721
-4.709919646851305e-05
0.007029298258214131
0.006961749447167109
3.124018613145712e-10
1.902280688507999e-08
1.258598232505772e-09
5.761726903714083e-08
2.865776156444688e-09
9.787491287031e-08
5.179268039267262e-09
1.409443102651629e-07
8.260865385658068e-09
1.880044947607882e-07
1.218314030616298e-08
2.402164876653396e-07
1.701787336709876e-08
2.98616080805189e-07
2.282089667917961e-08
3.639740442516747e-07
2.962255498377966e-08
4.367188965506483e-07
3.743315275074681e-08
5.170277960642341e-07
4.626065088370507e-08
6.050628494837821e-07
5.612794975068598e-08
7.011942179496435e-07
6.708174340030909e-08
8.060936837325875e-07
7.921024562701842e-08
9.207694821104855e-07
9.262169551131344e-08
1.046570921325408e-06
1.074237529895887e-07
1.184910995118822e-06
1.237389554663486e-07
1.337155043130789e-06
1.417077926350429e-07
1.504777773631842e-06
1.614900792046387e-07
1.689397647012913e-06
1.832662632307694e-07
1.892793471197635e-06
2.072395824643195e-07
2.116928465892425e-06
2.336404949168958e-07
2.364005658708722e-06
2.627358081692232e-07