# p  FACE_DATA 408
# x  y  z  p
-6.199677128280001 -1.770290296476768e-56 0.05000000000000001 0.08601750080990607
-5.841766953645001 -1.620777482505332e-56 0.05 0.08126590805420875
-5.524972915010096 -2.153451798963706e-56 0.04999999999999998 0.08035731528812502
-5.241612003280149 -2.806888429329737e-56 0.05000000000000004 0.0794576368143191
-4.985767548250054 -3.597998572497487e-56 0.05 0.07848494011200416
-4.752805322735 -4.545016179348241e-56 0.05 0.07764556177420372
-4.53904025346 -5.667670148769636e-56 0.05 0.07691036577574303
-4.341501680235 3.019604355207672e-35 0.05000000000000013 0.07625234927355047
-4.157764707255 3.019604355207663e-35 0.04999999999999988 0.07564694224372349
-3.985826857730002 -1.03145154530565e-55 0.05 0.07505883459729333
-3.824016391920046 -1.237659219877408e-55 0.05 0.07446906234915512
-3.670923143810046 -1.507284866303036e-55 0.05000000000000002 0.07368596741576985
-3.525345624424999 2.205578569902081e-34 0.05 0.0724444924965684
-3.386250040705 2.205578569902079e-34 0.05 0.06975537602312309
-3.25273815166 -2.498644863967277e-55 0.05 0.06771190050652301
-3.124021750625005 -2.91230821696449e-55 0.05 0.06870458615631393
-2.999402162035005 3.953633768793206e-38 0.05 0.07051727495992206
-2.87825356182 3.953633768793197e-38 0.05 0.07174321262087655
-2.760009228985 -4.53028580120021e-55 0.05000000000000001 0.07113295643434739
-2.644150050030001 -5.229643766379906e-55 0.05 0.07062765894360193
-2.530194752495001 -6.03265836838796e-55 0.05 0.06975431684822658
-2.417691456119999 3.563335264800588e-36 0.05000000000000001 0.06900791400863578
-2.306210211524999 3.563335264800588e-36 0.05000000000000001 0.06806899178049286
-2.195336254565031 -9.286187911826707e-55 0.05 0.06715100360872417
-2.084511222945031 -1.075274432244255e-54 0.05 0.06607181778266785
-1.973238572265002 -1.253603615590974e-54 0.05 0.06506678849941459
-1.861714088965727 -1.479851478049804e-54 0.05000000000000001 0.06388378441597822
-1.750613447125725 -1.771943479681618e-54 0.05000000000000001 0.06282883970451056
-1.640602116375 -2.151224323748392e-54 0.05 0.06161577647819878
-1.532319604890001 -2.646599715593039e-54 0.05 0.0603529129593968
-1.426365001275001 -3.297228707210124e-54 0.05 0.05924324668532861
-1.32328448682 -4.156093102206986e-54 0.05000000000000001 0.05808349422477217
-1.223561328165 4.918634990749429e-37 0.05000000000000001 0.05710659134605177
-1.127608667490444 4.918634990749428e-37 0.05 0.05642735875171111
-1.035765224727444 -9.02944196028276e-54 0.05 0.05568390488266108
-0.9482938351416677 -1.23679896553832e-53 0.05 0.05517758640429861
-0.8653825831496679 -1.722052160233851e-53 0.05 0.05413251938963622
-0.7871481707279998 -1.945825165729804e-53 0.05 0.05403946878103929
-0.7136410814689997 -2.161999689882548e-53 0.05 0.05430015443323949
-0.6448520682064998 -2.926572415264178e-53 0.05 0.05499982360674485
-0.580719498008499 -4.473472796240401e-53 0.05 0.05629667209492265
-0.5211371248554948 -6.630245471634831e-53 0.05000000000000001 0.05824603835149945
-0.4659619178954952 -9.309620656932148e-53 0.05 0.06086974600703048
-0.4150216425154998 -1.322213641701272e-52 0.05 0.0646767906383882
-0.3681219644690001 -1.901439018391889e-52 0.05 0.06943608913909055
-0.3250529175284996 -2.772200667033447e-52 0.05 0.07528079858031021
-0.2855946382159995 -4.231750636661588e-52 0.05000000000000001 0.08245732511254898
-0.2495223245116395 -6.632001923048272e-52 0.04999999999999964 0.09083092056398773
-0.2166104180172277 -1.026396163662185e-51 0.0500000000000004 0.1008774274230251
-0.1866360409327575 -1.603449122384411e-51 0.05000000000000002 0.1121394078350502
-0.1593817414320572 -2.588392915718167e-51 0.05 0.1257015459105285
-0.1346376148218527 -3.319567529150036e-51 0.05000000000000001 0.140024877886601
-0.1122028748439547 -4.459689107849521e-51 0.05 0.1574333459063032
-0.09188695127803723 -7.111362713045976e-51 0.05 0.1747590515822515
-0.07351018789464646 -1.150184857367324e-50 0.05 0.1970653957705305
-0.05690421013014887 -1.892078802238458e-50 0.05 0.2168317970960529
-0.04191202556414967 -2.17946245410219e-50 0.05000000000000002 0.2459439042467143
-0.02838791317684984 -4.941883046670214e-50 0.05000000000000001 0.2664750155528267
-0.01619715001894997 -6.304463334994402e-49 0.05 0.306440504414706
-0.005215616759269629 -3.102847748977188e-47 0.05000000000000001 0.3214266237167151
0.004984628231944234 0.000650124296505 0.05 0.3878279251124886
0.01498983499070493 0.002474000165089999 0.05000000000000001 0.3741781993298426
0.02495961609579119 0.005356219880115 0.05000000000000002 0.3994049763661686
0.0348083070480501 0.009235386083779999 0.05 0.386796410967642
0.04451026872340021 0.0139465669205 0.05 0.3829121356286549
0.05409340052950008 0.0192992444897 0.05 0.359803467454108
0.06362293376495012 0.0251032013764 0.05000000000000001 0.3311165047192734
0.07318440262449996 0.03117835265225 0.05000000000000001 0.2886185258928504
0.08286925816765031 0.0373558425021 0.05 0.2369242445123884
0.09276689976555134 0.04347115580925 0.05 0.1755005737811551
0.1029647109755037 0.04934604078014999 0.05 0.1090266128946968
0.1135058636510092 0.05485286916295001 0.05 0.05561905196824959
0.1243531860560217 0.05999909950715 0.05 0.01931390899953633
0.135441092700049 0.06485786772810001 0.05000000000000001 -0.01304552905370949
0.1467171751646037 0.06949258762765001 0.05000000000000009 -0.04197116930298123
0.1581428065557089 0.07394550128175 0.04999999999999993 -0.07335964259490413
0.1697056945154021 0.07819497429705 0.05 -0.113808349380491
0.1814045373222452 0.08218582275149999 0.05 -0.1475129265769247
0.1932218094903342 0.08590334886955001 0.05 -0.172871824406437
0.2051296609833137 0.08936458319705 0.05 -0.1947007474256726
0.217101699999397 0.09258683191969999 0.05 -0.2128052491836286
0.2291130858063905 0.09558732069845 0.05 -0.2273693421546922
0.2411395099304548 0.09838675535050001 0.05 -0.2392850296446574
0.2531581926235 0.1010051694165 0.05 -0.2499356415502627
0.265148650843 0.103457597716 0.05 -0.2597817881999449
0.2770922138729998 0.1057550010535 0.05 -0.2687801151660182
0.2889713127765001 0.107907001951 0.05000000000000013 -0.2769759013230791
0.3007691609085 0.1099234323915 0.04999999999999989 -0.2845433815743499
0.3124699004924995 0.1118134923955 0.04999999999999993 -0.2920743524417173
0.3240589922324997 0.1135831474615 0.05000000000000087 -0.2999728085722233
0.3355231955479997 0.1152347288385 0.0499999999999992 -0.3079509403960202
0.3468501498114998 0.1167693493625 0.05 -0.3157279107902374
0.3580280966729998 0.1181889197785 0.05 -0.3229589635268827
0.3690459216129997 0.1194961773735 0.05000000000000001 -0.3299648734129348
0.3798932709134997 0.1206940507785 0.05 -0.3362809212061186
0.3905605893499996 0.121785482892 0.05000000000000001 -0.3425852453560735
0.401039070388 0.1227740654205 0.0500000000000001 -0.3480575692121786
0.4113206900105003 0.123663832921 0.04999999999999992 -0.3535870829333982
0.421398269641 0.12445864703 0.05 -0.3586450103977087
0.4312654779225 0.125161944243 0.05 -0.3638411581750862
0.4409167982214999 0.125776943995 0.05 -0.3686015721684212
0.4503474432275 0.126307764631 0.05 -0.3731405919373177
0.4595533833380002 0.1267588021975 0.05000000000000001 -0.3778014707984084
0.4685314297430002 0.1271324418885 0.05000000000000002 -0.3823530002951323
0.4772791175665002 0.1274304966415 0.05000000000000001 -0.385807207079765
0.4857945533219998 0.1276578823225 0.05 -0.3883471871584461
0.4940764914679997 0.1278211196335 0.05000000000000001 -0.3908566008217561
0.5021243971944995 0.1279249585275 0.05 -0.3936641615378084
0.5099383701799997 0.1279722348825 0.05 -0.3965049387844309
0.5175190604874998 0.127965412792 0.05 -0.3984961612834593
0.5248676350579998 0.127908039663 0.05 -0.399193098551799
0.5319857691329999 0.12780482143 0.05 -0.3997477536307708
0.5388755937885 0.1276595276705 0.05 -0.4014581017277506
0.5455396051649996 0.1274736281615 0.05 -0.4031841401830417
0.5519806574639996 0.1272485901065 0.05 -0.4040482568823663
0.5582020304095 0.126988439036 0.05000000000000001 -0.4042301351451506
0.5642073631170005 0.1266978713965 0.05 -0.4048016954162048
0.5700004493935004 0.1263787059575 0.05 -0.4059770645459559
0.5755851758355004 0.1260304212725 0.05000000000000001 -0.4065773508740053
0.5809656761405004 0.125653739803 0.05 -0.4055003027819651
0.5861464210650007 0.1252518265205 0.05000000000000001 -0.4036981503068594
0.5911321036110005 0.12482840891 0.05000000000000001 -0.4012102856849616
0.5959275198010001 0.1243864974475 0.05 -0.3985107984401806
0.600537529617 0.123928422739 0.05 -0.3947760849076868
0.6049670489815002 0.1234561363475 0.05000000000000001 -0.3902233666221362
0.6092210724855003 0.122971670584 0.05000000000000001 -0.3847472724982615
0.6133046228305001 0.122476867682 0.05 -0.3786447403740636
0.6172226775465003 0.12197296688 0.05 -0.3714764378672705
0.6209800302029999 0.121459852469 0.05 -0.3636522438637264
0.62458133592 0.12093669611 0.05 -0.3534469351357796
0.6280312956454999 0.1204034504175 0.05 -0.3405112448440712
0.6313347640235002 0.119861401074 0.05 -0.3249629707751874
0.6344968123680003 0.1193133306225 0.05 -0.3078305334922585
0.637522613852 0.1187626347535 0.05 -0.2902114552226583
0.6404172906375002 0.11821244768 0.05 -0.275616829241351
0.6431853636155 0.117663007212 0.05 -0.2633935445972977
0.6458299100325 0.117108143391 0.04999999999999965 -0.2557969488004393
0.6483530014750001 0.116538586868 0.05000000000000036 -0.2489332403665233
0.6507565369045 0.115946749381 0.05000000000000001 -0.2672233788025251
0.6530428059585001 0.1153287743385 0.05 -0.2676320528639067
0.6552411065430003 0.114664511668 0.05 -0.2278694347900333
0.657403313374 0.1139489530125 0.05 -0.1578126943422951
0.6595440982245004 0.113172824724 0.05000000000000001 -0.1370638005974249
0.6616543113090004 0.1123169590505 0.05000000000000001 -0.2531983717172763
0.6637315088855003 0.1113839593165 0.05 -0.3984486336860565
0.6657702102740002 0.1103697151375 0.05 -0.40876118097434
0.667766757488 0.1092746552405 0.05 -0.3130532715278946
0.6697226334865001 0.1081081019005 0.05 -0.2453560176767411
0.6716427213760002 0.106883191143 0.05000000000000001 -0.2052414168093605
0.6735315887085001 0.1056104175955 0.05 -0.1579595413288983
0.6753924238924999 0.1042968060795 0.05 -0.1412526760225865
0.6772280143150003 0.1029479441625 0.05 -0.1623812052407914
0.6790413578645007 0.101569121764 0.05000000000000001 -0.2137907331272876
0.6808352171090004 0.10016484892945 0.05 -0.2523546330397494
0.6826125431064999 0.09873950390380001 0.04999999999999994 -0.2770333706130597
0.6843763723494994 0.09729728448955002 0.05000000000000007 -0.2894007551836192
0.6861295665739999 0.09584194181709997 0.05 -0.2894642326773637
0.6878752202565003 0.09437734204935001 0.04999999999999966 -0.2853245415649115
0.6896156221749998 0.09290627960580002 0.05000000000000035 -0.2756359597174698
0.6913518474884994 0.09143005320875 0.04999999999999999 -0.2666028211380151
0.6930848069234999 0.08994974418730002 0.05000000000000001 -0.2564178837853377
0.6948159685650003 0.08846706926004999 0.05 -0.2481468202359752
0.6965479688665001 0.08698509898109999 0.05 -0.2413407359562386
0.6982840580074997 0.0855076355043 0.05 -0.2363044348084342
0.7000263361159997 0.0840371715334 0.05000000000000001 -0.2332509620403012
0.7017748511845004 0.08257380343345001 0.05 -0.2311732149079061
0.7035282252639998 0.08111591737334997 0.04999999999999998 -0.2309750254384823
0.7052849101374996 0.07966166549259997 0.05000000000000003 -0.2310978695235595
0.7070436944859996 0.07820958308489998 0.05 -0.2325412102825681
0.7088038634584999 0.07675879497879998 0.05000000000000001 -0.2338858538726326
0.710566332081 0.075310404581 0.05 -0.2358675792333997
0.7123327171204995 0.07386638023864998 0.04999999999999999 -0.2375692554478428
0.7141040067579998 0.07242794790525001 0.04999999999999965 -0.2393650768190427
0.7158820780589997 0.0709974682466 0.04999999999999972 -0.2409198293971425
0.7176684679405001 0.06957692581854998 0.05000000000000064 -0.2422652329864977
0.7194640268915004 0.06816751375635 0.05000000000000029 -0.2434088682618459
0.7212698693615001 0.06677080212205 0.04999999999999972 -0.2442800871295508
0.7230860540255 0.06538703709054999 0.05000000000000001 -0.2450341227325831
0.7249121528170001 0.06401583513665 0.05000000000000001 -0.2454836998998386
0.7267477269805006 0.06265677472459999 0.05000000000000002 -0.2458935705991475
0.7285925185100005 0.06130966710525001 0.05000000000000002 -0.2460401136514663
0.7304465161280002 0.05997464959934999 0.05 -0.2462116168192308
0.7323093458700005 0.0586513518156 0.04999999999999999 -0.2461857291246958
0.7341809792190002 0.0573398883524 0.05000000000000002 -0.2461649602304342
0.7360624659025 0.0560419370663 0.05000000000000302 -0.2461059632461449
0.7379542475475002 0.05475833491104999 0.04999999999999701 -0.2460654262065466
0.7398563365580004 0.05348934074064999 0.04999999999999998 -0.2459927635442364
0.7417694324739998 0.05223625912550001 0.05 -0.2459995489079518
0.7436936400309997 0.05099952815289999 0.05 -0.2459946502828723
0.7456288995499998 0.04977936423650001 0.05000000000000001 -0.2460373868376479
0.74757529892 0.04857621600440001 0.05 -0.2461088856263225
0.7495328370405001 0.04739041614075001 0.05000000000000002 -0.2461883414837986
0.7515016017880005 0.04622245676085 0.05000000000000001 -0.2463379480523413
0.7534814207705002 0.0450724044298 0.05 -0.2464464557398151
0.7554723219755003 0.04394069032665 0.05 -0.2466309393868011
0.7574743848684999 0.04282784208070001 0.05 -0.2468040718344679
0.7594872815664997 0.0417336742321 0.05000000000000004 -0.2469792486129468
0.7615110766405001 0.04065873497615001 0.04999999999999998 -0.2471632310797869
0.7635459190695004 0.03960374280455001 0.05 -0.2473850117030191
0.7655914220255003 0.0385684109312 0.05 -0.247548974893347
0.7676473243625004 0.03755268941775 0.05 -0.2476918836236682
0.7697135837544997 0.03655696300124999 0.05 -0.2478403502371864
0.77179029527 0.03558193783305 0.04999999999999999 -0.2479965502231188
0.7738773988725003 0.03462801223355001 0.05000000000000002 -0.2481865258680691
0.7759744457525 0.03369474440785001 0.05000000000000001 -0.2483258031063162
0.7780810664150004 0.03278183889165003 0.05 -0.248399951709711
0.78019704305 0.03188932292789999 0.05 -0.2482825622128819
0.7823221505739999 0.03101719849765 0.05000000000000001 -0.2483761428666038
0.7844560716075 0.03016522813985001 0.05 -0.2484577479408911
0.7865984214700003 0.02933297664485 0.05000000000000001 -0.2485164676966195
0.7887488166960002 0.02851996895799999 0.05 -0.2485388569582541
0.7909068707959999 0.0277256739593 0.05000000000000001 -0.2485403791081053
0.7930721921014999 0.02694949718585 0.04999999999999999 -0.2484762682028274
0.7952445708874996 0.0261913195438 0.05 -0.2484046606058465
0.7974239025135 0.02545130583115001 0.05000000000000001 -0.2483127334950671
0.7996099661955 0.02472927879469999 0.05 -0.2482169059305237
0.8018025000324995 0.024024915325 0.05000000000000001 -0.2480715353899204
0.8040012958529995 0.02333803380759999 0.05 -0.2479470356419582
0.8062060857959994 0.0226682286627 0.05 -0.247775797810533
0.808416562567 0.02201493253974999 0.05 -0.2475722642075122
0.8106324933375002 0.02137777852194999 0.05 -0.247380263578487
0.8128535181804998 0.0207559029622 0.05 -0.247128116938223
0.8150792454929996 0.0201482675157 0.05000000000000001 -0.2468227513699631
0.8173095056829995 0.0195545852866 0.04999999999999612 -0.2464463142201249
0.8195442795785002 0.0189751162048 0.05000000000000389 -0.2461070851561334
0.8217834321310002 0.01840966975389999 0.05 -0.2457033920047609
0.8240267348000002 0.01785767121659999 0.04999999999999999 -0.2452917949329552
0.826274041879 0.0173188424891 0.05 -0.2448017236947028
0.8285252627649998 0.0167931131495 0.05 -0.2443643749146434
0.8307801805914996 0.01627984063945 0.05 -0.2438419988069251
0.8330385750609997 0.015778336125 0.05 -0.2432617949321438
0.8353003986759997 0.01528864325229999 0.05000000000000001 -0.2427271675288834
0.8375654441710002 0.01481003517775001 0.05 -0.2420883534925452
0.8398334852355001 0.0143416651224 0.05 -0.2414080762957244
0.8421044345034995 0.0138832977753 0.05000000000000001 -0.2407438587904115
0.8443780829514996 0.0134340585689 0.05 -0.2399271271623246
0.8466543157384999 0.0129935213911 0.05 -0.2391035062107286
0.8489331304950004 0.01256180862455 0.05 -0.2382651099601888
0.8512143973715005 0.0121383619413 0.05 -0.2373070603154393
0.8534980640470001 0.01172302708495 0.05000000000000001 -0.236342790380877
0.8557841323799997 0.0113159304976 0.05 -0.235349446055353
0.8580725027609996 0.01091662627125 0.05 -0.2342717595347933
0.8603631170914997 0.0105248892373 0.05000000000000001 -0.2331691669202021
0.8626559558170003 0.010140705231595 0.05 -0.2320134501998073
0.8649509638630009 0.009763841642255 0.05 -0.2308217462739681
0.8672480749810003 0.009393981725745 0.05000000000000315 -0.2295674466709219
0.8695472360589998 0.009030876001934999 0.04999999999999687 -0.2282665909904854
0.8718484026379998 0.008674312432575002 0.05 -0.2269180715327454
0.8741515097960003 0.008323930074100006 0.05 -0.2255093295657749
0.8764564866705006 0.007979311843514997 0.05 -0.2240346842730271
0.8787632926100001 0.007640223389389998 0.05 -0.2224834084611921
0.8810719287089999 0.007306705454425 0.05000000000000002 -0.2209010039013416
0.8833823747765001 0.006978648181244997 0.05 -0.2192534072057412
0.885694584679 0.006655753190235001 0.05 -0.2175308658207763
0.8880085590280001 0.006338047922060002 0.05000000000000002 -0.2157567257665664
0.8903243296705001 0.006025791010584998 0.05 -0.213923735043947
0.8926419295295001 0.005719262982080003 0.05 -0.2120653879821615
0.894961370319 0.005418595432645 0.05 -0.2101456058789439
0.897282659628 0.005123898809525002 0.05000000000000001 -0.2081895532313932
0.8996058166475005 0.004835381589855001 0.05000000000000001 -0.206187912306275
0.9019308405080003 0.004553099979725001 0.05 -0.2041542167936745
0.9042576994649999 0.004276853159515 0.05 -0.2020535768824671
0.9065863723679998 0.004006522247784995 0.05000000000000432 -0.1998866065190576
0.9089168821900002 0.003742369358659995 0.0499999999999957 -0.1976822813153381
0.9112492673494997 0.003484812123329997 0.05 -0.1954158797164752
0.9135835831659994 0.003234460843345001 0.05 -0.1931450796011884
0.9159198695309996 0.002991829606820001 0.05 -0.1908261714565601
0.9182581570539999 0.002757397545525002 0.05 -0.1884816291941073
0.9205985015379998 0.002531952698750002 0.05 -0.1861350163639709
0.9229409218954998 0.002315977488074998 0.05000000000000001 -0.1837716782450459
0.925285397132 0.002109572991655 0.05000000000000002 -0.1813653179612273
0.9276319345350003 0.00191320048961 0.05 -0.1789362133450561
0.9299805638220006 0.00172767490034 0.05000000000000001 -0.1765246885579159
0.9323312699495008 0.001553340179535001 0.05 -0.1740784413599324
0.9346840168910001 0.001390327937335001 0.05 -0.1716164687754056
0.9370387882550004 0.001239107756285 0.05 -0.1691389975111877
0.9393955675104999 0.001100259410920001 0.05 -0.1666678379817456
0.9417543090615001 0.000973952371799999 0.05 -0.164199227981742
0.9441149373385004 0.0008598167828175008 0.05000000000000001 -0.1616655428946583
0.94647739603 0.0007578350968285 0.05000000000000001 -0.1591483819339553
0.9488416360929997 0.0006680967845340002 0.05 -0.1565985288624311
0.9512075896600003 0.0005901756512729997 0.05 -0.1540363759290826
0.9535751911305002 0.0005235204025705 0.05 -0.1514187254791049
0.9559443884610002 0.0004678319103404997 0.05000000000000001 -0.1487985642535771
0.9583151318463734 0.0004226114038649997 0.05 -0.14616124464557
0.96068736691725 0.0003866365378025004 0.05000000000000001 -0.1434614392391295
0.9630610461883005 0.0003581136067694998 0.05 -0.1407396557100751
0.9654361321449361 0.0003345389461170001 0.05000000000000001 -0.1378659927189197
0.9678126019686506 0.0003134066880180001 0.05 -0.134949351667312
0.9701904440964373 0.0002925642877440001 0.05 -0.1318611093944198
0.9725696590772913 0.0002710008838005001 0.05000000000000002 -0.1287505915519648
0.9749502589202063 0.0002489953303805001 0.05000000000000001 -0.1255795901600932
0.9773322566041784 0.0002269151917819998 0.05 -0.1224195149910819
0.9797156656397022 0.0002051839441120001 0.05 -0.1192533073229134
0.9821004936287734 0.00018357764653 0.05 -0.1160914056682351
0.984486740625389 0.0001610744221329998 0.05000000000000001 -0.1128769190860265
0.9868744035835435 0.0001364675391544996 0.05 -0.1096594561402783
0.989263474979734 0.0001084276971785 0.05 -0.1063631544094994
0.9916539636619581 7.717415161219986e-05 0.05000000000000348 -0.1030714902388724
0.9940459197662119 4.603636350784988e-05 0.04999999999999652 -0.09985468669797781
0.9964394098179934 2.012308392756517e-05 0.05 -0.09675885854515179
0.9988344687727994 4.57269653891493e-06 0.05000000000000001 -0.09386086894294313
1.001231319971127 3.340974161683565e-46 0.05 -0.0910604178172819
1.003631546220975 7.750082138688297e-48 0.05 -0.08801274890822297
1.006038885810841 6.555656008515638e-49 0.05 -0.08501786687539789
1.008458096595723 4.7614071822959e-49 0.05 -0.08196547695316601
1.010893959880618 4.212971753347228e-35 0.05000000000000001 -0.07890523762207813
1.013351289880526 4.212971753346965e-35 0.05 -0.07564942976618839
1.015834943250446 6.247585057007485e-50 0.05000000000000001 -0.07260755509655945
1.018349828665375 4.514465165650423e-50 0.05000000000000001 -0.06957511823002406
1.020900916525313 3.524731043060991e-50 0.05 -0.06654440911128226
1.023493248780261 4.887430541335527e-42 0.05 -0.06349596424289843
1.026131948895215 4.887430536780486e-42 0.05 -0.06044978554602412
1.028822231975175 2.08171227321576e-50 0.0500000000000034 -0.05739481513097758
1.031569415075142 1.802039927298395e-50 0.04999999999999667 -0.05433139066792485
1.034378927710113 1.57022107074507e-50 0.05 -0.05125759889559856
1.03725632258009 1.420215800775596e-50 0.05 -0.04817825361449869
1.040207286545071 1.314166532451488e-50 0.05000000000000001 -0.04509331854525252
1.043237651865053 1.167153830619499e-50 0.05 -0.04200514701834511
1.04635340773504 1.012282698216123e-50 0.05 -0.03891016029312955
1.049560712110031 8.8362047155545e-51 0.05000000000000001 -0.03581962623038043
1.052865903880022 7.850990099100119e-51 0.05000000000000001 -0.03272415138926831
1.056275515405016 6.782096079178141e-51 0.05 -0.02963712794827238
1.059796285415011 5.758173336704554e-51 0.05 -0.02654955421780218
1.063435172330008 5.089930540300197e-51 0.05 -0.02347471044826137
1.067199368020004 4.487644550704024e-51 0.05 -0.02041133005296556
1.071096312010003 3.946752918089737e-51 0.05000000000000001 -0.01736651614996383
1.075133706190001 3.462480352381012e-51 0.05000000000000001 -0.01434474107070285
1.079319530045001 3.030063093257882e-51 0.05 -0.01135431507778346
1.0836620564 2.6448855518304e-51 0.05000000000000002 -0.008400448633777589
1.088169867785 2.302560655059942e-51 0.05 -0.005499078448361032
1.092851873409999 1.998973797613505e-51 0.05 -0.002635025358095667
1.097717326755 1.803734263287798e-33 0.05000000000000001 0.000158984678173404
1.10277584386 1.803734263287771e-33 0.05 0.002904228647541441
1.108037422345 1.289724908508788e-51 0.05 0.005567726686615274
1.11351246116 1.445221737802393e-51 0.05000000000000001 0.008151713207837866
1.11921178112 1.559196749856948e-51 0.05000000000000001 0.01065326491577832
1.12514664632067 1.300859228034842e-51 0.05000000000000001 0.01306151464197873
1.13132878638594 1.081932013827977e-51 0.05 0.01535846753691105
1.13777041965027 9.013960678328829e-52 0.05 0.01755984442565998
1.14448427731 7.490579711090687e-52 0.05 0.01956675800510894
1.151483628575 6.159210081879529e-52 0.05 0.02151909513000257
1.158782306915 7.991412496190244e-34 0.05000000000000001 0.02328387004207732
1.166394737385 7.991412496190398e-34 0.05 0.02493425988684598
1.174335965135 3.352951588159582e-52 0.05 0.02641064853032179
1.182621685145001 2.679234412950748e-52 0.05000000000000001 0.02772993884537867
1.191268273245004 2.086457687942997e-52 0.05 0.02887372968540871
1.20029281849501 1.575588342927691e-52 0.05 0.02985062577984206
1.209713156935027 1.12494214698006e-52 0.05 0.03064415619921308
1.219547906845071 7.597762694785113e-53 0.05 0.03125999811245313
1.229816505550171 5.056375694591424e-53 0.05000000000000001 0.03167122665706664
1.240539247835392 2.988036449602348e-53 0.05000000000000068 0.03188918277431945
1.251737326050865 1.47478037722868e-53 0.04999999999999936 0.03189249749315357
1.263432871986836 2.92599120086797e-54 0.05 0.0316945752576443
1.275649000638772 5.615549845434851e-28 0.05 0.03130134588922218
1.288409855867532 5.615549845434884e-28 0.05 0.03074015775648788
1.301740658115003 -7.952745611848993e-54 0.05000000000000001 0.03002561897101967
1.31566775429 -1.350993826018275e-53 0.05 0.02919197160758667
1.33021866981 -1.760409489893513e-53 0.05 0.02826121202590604
1.345422162985 -1.959535262670717e-53 0.05 0.02725077651109438
1.36130828188 -1.893859779633322e-53 0.05000000000000001 0.0261732000800953
1.377908423704999 4.272820786595066e-36 0.05 0.02505491236751226
1.39525539685 4.272820786595103e-36 0.05000000000000001 0.02390833381404009
1.413383485745 3.833228859669992e-35 0.05 0.02275034849187472
1.43232851861 3.833228859670008e-35 0.05 0.02159956073298899
1.452127938255 -2.088223989693076e-53 0.05000000000000002 0.02045951046935596
1.47282087611 -1.594399260663304e-53 0.05 0.0193504908652612
1.494448229535 -1.114399887648428e-53 0.05 0.01826474067215152
1.51705274267 -1.128685139002839e-53 0.05000000000000001 0.01721236770913317
1.54067909091 -1.154267577155954e-53 0.05 0.01620872410598618
1.565373969180001 -1.200022354574749e-53 0.05000000000000001 0.01525218749429586
1.591186184255001 -1.216950498229143e-53 0.05 0.0143553966256268
1.618166751205002 -1.210855163816524e-53 0.05000000000000001 0.01353834064594134
1.646368994210005 -1.186692561351e-53 0.05000000000000001 0.0127688774091338
1.675848651970013 -1.148073729276937e-53 0.05 0.01206478904834151
1.706663987855033 1.770651479605129e-30 0.05000000000000001 0.01141499534439203
1.738875905065084 1.770651479605129e-30 0.05 0.0108328147538238
1.772548066995077 1.285187220302859e-30 0.05 0.01031576453501682
1.807747023045025 1.285187220302859e-30 0.05000000000000001 0.009860499654252721
1.844542340160011 -8.498809873561565e-54 0.05 0.009462155687348983
1.883006740330003 -7.864631572248153e-54 0.05 0.009122242371962552
1.923216244305001 -4.853846242262313e-54 0.05000000000000001 0.008823884076044047
1.96525032184 -2.08255592002934e-54 0.05 0.00856336473295757
2.009192048765 -1.931151343435375e-54 0.05 0.008354203024847781
2.05512827118 -1.782765740930305e-54 0.05000000000000001 0.008155266926859594
2.10314977709 -1.639012527960066e-54 0.05 0.007981680721364256
2.153351475825 -1.501096231912535e-54 0.05 0.007770537644508665
2.205832585645 -1.369880416452211e-54 0.05 0.007594107473335333
2.260696829828073 -1.243199813170405e-54 0.05 0.00740329002078228
2.318052641638146 -1.124281723352493e-54 0.05 0.007224633644874102
2.378013378665074 3.862593042782785e-33 0.05 0.007009959870651036
2.440697546860001 3.862593042782785e-33 0.05 0.006806806398170512
2.506229034735071 -8.231154025850391e-55 0.05 0.006550758661875645
2.574737358236279 -7.379732381985642e-55 0.05 0.006310039650122367
2.646357916676208 -6.600159258597746e-55 0.05 0.006010027227798114
2.721232260385 -5.889007816274467e-55 0.05 0.0057415377750295
2.799508370464999 -5.242532143886317e-55 0.05000000000000001 0.0053617839608832
2.881340951215 -4.656787021944061e-55 0.05000000000000001 0.005043480847233419
2.966891735925 -4.127727385060727e-55 0.05000000000000001 0.004635143090144581
3.056329806515085 -3.65128983176387e-55 0.05000000000000001 0.004306211686709998
3.149831927715085 3.804823526955087e-38 0.05 0.003828739952163266
3.247582896405036 3.804823526955087e-38 0.05000000000000001 0.003524189619402042
3.349775906860036 -2.498086599263219e-55 0.05000000000000001 0.002918124625073925
3.456612932570001 -2.193161219858966e-55 0.05 0.002766102005498341
3.56830512542 -1.922122729109762e-55 0.05 0.001858677896439906
3.685073233015001 -1.681757902885889e-55 0.05000000000000001 0.002129351156582992
3.807148034954497 -1.469065508256915e-55 0.05000000000000001 0.0004662424332267536
3.934770798949498 -1.904995678316377e-55 0.05000000000000001 0.001826197089330972
