/*--------------------------------*- C++ -*----------------------------------*\
| =========                 |                                                 |
| \\      /  F ield         | OpenFOAM: The Open Source CFD Toolbox           |
|  \\    /   O peration     | Version:  v1812                                 |
|   \\  /    A nd           | Web:      www.OpenFOAM.com                      |
|    \\/     M anipulation  |                                                 |
\*---------------------------------------------------------------------------*/
FoamFile
{
    version     2.0;
    format      ascii;
    class       volScalarField;
    location    "0";
    object      profileRefFieldInversion;
}
// * * * * * * * * * * * * * * * * * * * * * * * * * * * * * * * * * * * * * //

dimensions      [0 0 0 0 0 0 0];


internalField   nonuniform List<scalar> 
10965
(
0.853403
0.9058389999999999
0.953485
0.99597
1.02902
1.05119
1.06341
1.06842
1.07044
1.07181
1.07322
1.07465
1.07578
1.07657
1.07734
1.07827
1.07927
1.08022
1.08115
1.08214
1.0832
1.08433
1.08571
1.08762
1.09015
1.09204
0.590794
0.660564
0.730316
0.795002
0.853096
0.905295
0.952738
0.995093
1.02805
1.05018
1.0624
1.06745
1.06953
1.07095
1.07241
1.07389
1.07506
1.07589
1.0767
1.07767
1.0787
1.07968
1.08064
1.08165
1.08274
1.0839
1.08532
1.08731
1.08997
1.0921
0.526436
0.593181
0.662208
0.73125
0.795164
0.852839
0.904826
0.9520380000000001
0.994255
1.02711
1.04919
1.0614
1.06649
1.06862
1.0701
1.07161
1.07313
1.07434
1.07521
1.07606
1.07707
1.07812
1.07914
1.08012
1.08117
1.08228
1.08347
1.08494
1.087
1.08981
1.09219
0.466685
0.52964
0.5955279999999999
0.6638810000000001
0.732243
0.795382
0.852595
0.904363
0.951375
0.993436
1.02619
1.0482
1.06041
1.06553
1.06772
1.06925
1.07082
1.07238
1.07363
1.07454
1.07542
1.07647
1.07756
1.07859
1.07961
1.08068
1.08182
1.08304
1.08455
1.0867
1.08966
1.09231
0.412862
0.470303
0.532649
0.597755
0.665527
0.733209
0.795591
0.852326
0.903864
0.950735
0.992615
1.02528
1.04723
1.05943
1.06459
1.06683
1.06841
1.07003
1.07164
1.07293
1.07387
1.07479
1.07587
1.07699
1.07805
1.07909
1.08019
1.08135
1.0826
1.08416
1.08639
1.08951
1.09247
0.365997
0.416851
0.473872
0.535501
0.599895
0.667165
0.734142
0.795797
0.852064
0.903365
0.950117
0.991793
1.02437
1.04626
1.05844
1.06365
1.06594
1.06758
1.06924
1.0709
1.07222
1.0732
1.07416
1.07527
1.07642
1.07751
1.07858
1.0797
1.08089
1.08217
1.08377
1.08608
1.08938
1.09266
0.324851
0.370229
0.420944
0.477522
0.538247
0.6019910000000001
0.668797
0.735007
0.795992
0.851834
0.902905
0.9495170000000001
0.990973
1.02347
1.0453
1.05746
1.06272
1.06506
1.06675
1.06846
1.07016
1.07152
1.07254
1.07353
1.07467
1.07585
1.07697
1.07806
1.0792
1.08042
1.08173
1.08338
1.08578
1.08925
1.09291
-0.00224536
-0.00668063
-0.0110112
-0.0151848
-0.0192175
-0.0231833
-0.0270393
-0.0307616
-0.0343804
-0.0378976
-0.041294
-0.0445524
-0.0476598
-0.0506082
-0.0533944
-0.0560194
-0.0584547
0.329185
0.374436
0.42513
0.481245
0.540967
0.604074
0.670425
0.735866
0.796194
0.85163
0.9024759999999999
0.948913
0.990159
1.02257
1.04435
1.05648
1.06179
1.06418
1.06592
1.06769
1.06942
1.07082
1.07187
1.0729
1.07408
1.07528
1.07643
1.07754
1.07871
1.07995
1.08129
1.08298
1.08547
1.08914
1.0932
-0.00213767
-0.00635749
-0.0104717
-0.0144277
-0.0182407
-0.0219832
-0.0256133
-0.029108
-0.0324975
-0.0357845
-0.0389511
-0.0419821
-0.0448664
-0.0475975
-0.0501733
-0.0525957
-0.0548385
-0.0569048
0.333565
0.378648
0.429346
0.484975
0.54373
0.606151
0.672037
0.736802
0.796463
0.851438
0.902033
0.948287
0.989354
1.02169
1.0434
1.0555
1.06086
1.06331
1.0651
1.06691
1.06869
1.07012
1.07121
1.07227
1.07348
1.07471
1.07589
1.07702
1.07821
1.07947
1.08084
1.08259
1.08517
1.08904
1.09354
-0.00203192
-0.00603953
-0.009939460000000001
-0.0136784
-0.0172716
-0.0207905
-0.024194
-0.0274611
-0.0306218
-0.0336796
-0.0366186
-0.0394253
-0.0420902
-0.0446083
-0.0469785
-0.049203
-0.0512581
-0.0531469
-0.0548759
0.297411
0.337978
0.382851
0.433428
0.48851
0.5464560000000001
0.608227
0.6736
0.737723
0.796743
0.8512380000000001
0.901563
0.947644
0.988553
1.02081
1.04244
1.05451
1.05995
1.06245
1.06428
1.06614
1.06796
1.06943
1.07055
1.07165
1.07288
1.07414
1.07534
1.0765
1.07771
1.079
1.0804
1.08219
1.08486
1.08895
1.09395
-0.0019106
-0.00567697
-0.00933786
-0.0128415
-0.0162025
-0.0194893
-0.0226627
-0.0257027
-0.0286385
-0.0314737
-0.0341938
-0.0367867
-0.0392441
-0.0415621
-0.0437401
-0.0457803
-0.0476608
-0.0493842
-0.0509572
-0.052373
-0.0536394
-0.0547512
-0.05571
-0.0565193
-0.0571819
-0.0576962
-0.0580633
-0.0582871
-0.0583682
-0.0583059
-0.0580974
-0.0577377
-0.0572197
-0.0565367
-0.0556832
-0.0546558
-0.0534554
-0.0520853
-0.0505506
-0.0488651
-0.0470457
-0.0450933
-0.0429897
-0.0407059
-0.0382097
-0.0354755
-0.0324936
-0.0291855
-0.025497
-0.021463
-0.0170773
-0.0122788
-0.00701306
-0.00128882
0.00485847
0.0113885
0.0182194
0.0254048
0.0331597
0.0416132
0.0507796
0.0608408
0.07191549999999999
0.0842577
0.09818399999999999
0.113917
0.131867
0.152424
0.175988
0.20296
0.232963
0.265696
0.302191
0.342444
0.386991
0.437242
0.491832
0.549171
0.610318
0.675095
0.738553
0.796966
0.8510219999999999
0.901103
0.947009
0.987753
1.01993
1.04147
1.05353
1.05903
1.06158
1.06346
1.06537
1.06723
1.06873
1.06988
1.07102
1.07228
1.07357
1.0748
1.07598
1.07721
1.07852
1.07995
1.08178
1.08456
1.08887
1.09443
-0.00181619
-0.00539319
-0.00886291
-0.0121732
-0.0153386
-0.0184274
-0.021401
-0.0242413
-0.0269774
-0.0296136
-0.0321362
-0.0345343
-0.0368006
-0.0389312
-0.0409261
-0.0427872
-0.0444945
-0.0460507
-0.0474625
-0.048724
-0.0498431
-0.0508152
-0.0516421
-0.052327
-0.0528713
-0.0532721
-0.0535281
-0.0536415
-0.0536117
-0.0534371
-0.0531148
-0.0526391
-0.0520048
-0.0512121
-0.0502614
-0.0491519
-0.0478815
-0.0464492
-0.0448578
-0.0431126
-0.0412219
-0.0391926
-0.037013
-0.0346562
-0.0321017
-0.0293351
-0.026346
-0.0230504
-0.0193545
-0.0152592
-0.0107681
-0.00587475
-0.000587891
0.00506743
0.011042
0.0172817
0.0238265
0.0308645
0.0385698
0.0471056
0.0564775
0.0666028
0.0775057
0.0895885
0.10345
0.119451
0.137581
0.157938
0.181164
0.207915
0.23786
0.270742
0.307134
0.347007
0.39121
0.441022
0.495173
0.551996
0.612486
0.676557
0.739362
0.797192
0.850823
0.900676
0.946379
0.986939
1.01902
1.04049
1.05255
1.05812
1.06072
1.06265
1.0646
1.0665
1.06803
1.06922
1.07039
1.07169
1.073
1.07425
1.07545
1.07671
1.07804
1.07949
1.08137
1.08425
1.0888
1.09499
-0.00172764
-0.00512582
-0.00841249
-0.0115343
-0.014506
-0.0173965
-0.0201687
-0.0228069
-0.0253414
-0.0277773
-0.0301031
-0.0323093
-0.0343898
-0.0363414
-0.038164
-0.0398595
-0.041409
-0.0428149
-0.0440832
-0.0452078
-0.0461953
-0.0470411
-0.0477455
-0.0483103
-0.0487361
-0.0490192
-0.0491583
-0.0491551
-0.0490093
-0.0487202
-0.0482868
-0.0477057
-0.0469738
-0.0460916
-0.0450573
-0.0438649
-0.0425121
-0.0410035
-0.0393416
-0.0375191
-0.0355278
-0.0333698
-0.0310481
-0.0285552
-0.0258876
-0.0230408
-0.0199983
-0.0166605
-0.0129131
-0.00875742
-0.00421267
0.000691347
0.00589577
0.011354
0.0170223
0.0229814
0.0294161
0.0364479
0.0441743
0.0527643
0.0621497
0.0722112
0.08303820000000001
0.09508900000000001
0.109088
0.12524
0.143275
0.163391
0.186353
0.212889
0.242909
0.276069
0.312244
0.351654
0.395533
0.444906
0.498574
0.554872
0.614711
0.678022
0.740193
0.797471
0.850662
0.900263
0.945731
0.986112
1.01809
1.03951
1.05157
1.0572
1.05986
1.06184
1.06384
1.06577
1.06734
1.06856
1.06976
1.07109
1.07243
1.0737
1.07492
1.0762
1.07755
1.07903
1.08096
1.08394
1.08875
1.09564
-0.00162091
-0.00480639
-0.007881350000000001
-0.010793
-0.0135556
-0.0162358
-0.0187981
-0.021228
-0.0235557
-0.0257869
-0.0279117
-0.0299221
-0.0318132
-0.0335828
-0.0352308
-0.0367586
-0.0381481
-0.0394007
-0.0405211
-0.0415024
-0.04235
-0.0430582
-0.043626
-0.0440553
-0.0443477
-0.0445003
-0.0445126
-0.0443867
-0.0441222
-0.0437183
-0.0431743
-0.0424887
-0.0416599
-0.0406875
-0.0395699
-0.0383053
-0.0368924
-0.0353294
-0.033609
-0.0317216
-0.0296678
-0.0274497
-0.0250564
-0.0224736
-0.019705
-0.0167595
-0.0136448
-0.010255
-0.00645619
-0.00225564
0.00228647
0.00712828
0.0122438
0.0175812
0.0231489
0.0291077
0.0355855
0.0425911
0.0502291
0.0586454
0.0678385
0.0778677
0.0887984
0.101015
0.115184
0.131195
0.148842
0.168742
0.191649
0.218112
0.248183
0.281367
0.317262
0.35628
0.399755
0.448728
0.501966
0.557768
0.616996
0.679491
0.7409790000000001
0.797771
0.850564
0.899881
0.945096
0.985287
1.01717
1.03855
1.0506
1.05629
1.059
1.06103
1.06307
1.06504
1.06664
1.0679
1.06913
1.07048
1.07185
1.07315
1.07439
1.07569
1.07706
1.07857
1.08054
1.08363
1.08871
1.09639
-0.00148866
-0.00441127
-0.00722608
-0.00988228
-0.0123936
-0.0148236
-0.0171389
-0.0193269
-0.0214164
-0.0234133
-0.0253085
-0.0270952
-0.0287688
-0.0303273
-0.0317701
-0.0330987
-0.0342962
-0.0353638
-0.0363056
-0.0371158
-0.0377997
-0.0383527
-0.0387747
-0.0390684
-0.0392359
-0.0392756
-0.0391879
-0.038975
-0.0386359
-0.0381698
-0.0375758
-0.0368513
-0.0359919
-0.0349936
-0.0338523
-0.032564
-0.0311247
-0.0295327
-0.027783
-0.0258662
-0.0237804
-0.0215304
-0.0191091
-0.0164949
-0.0136811
-0.0106811
-0.00751507
-0.00407394
-0.000201901
0.00408822
0.008688359999999999
0.0135471
0.0186718
0.0240429
0.0297026
0.0357282
0.0421462
0.049035
0.0565089
0.0647266
0.0739095
0.08402569999999999
0.0951066
0.107515
0.121568
0.137156
0.154535
0.174416
0.197333
0.223792
0.253754
0.286555
0.322039
0.360857
0.403958
0.452424
0.505288
0.560762
0.619422
0.6809809999999999
0.741665
0.79803
0.850565
0.899611
0.9445249999999999
0.984469
1.01624
1.03759
1.04963
1.05537
1.05814
1.06022
1.06231
1.06432
1.06595
1.06723
1.0685
1.06988
1.07127
1.07259
1.07386
1.07517
1.07657
1.0781
1.08012
1.08332
1.08868
1.09727
-0.00134361
-0.0039767
-0.00650229
-0.00887115
-0.0110972
-0.0132417
-0.0152745
-0.0171855
-0.019003
-0.0207332
-0.0223689
-0.0239047
-0.025337
-0.0266643
-0.0278865
-0.0290049
-0.030005
-0.030888
-0.0316577
-0.0323093
-0.032847
-0.0332671
-0.03357
-0.0337572
-0.0338299
-0.0337868
-0.0336283
-0.0333554
-0.0329655
-0.0324555
-0.0318238
-0.031069
-0.0301874
-0.0291754
-0.0280282
-0.026738
-0.0252961
-0.0236987
-0.0219425
-0.0200161
-0.0179119
-0.0156391
-0.0132085
-0.0106122
-0.00782471
-0.00482798
-0.00161295
0.00194365
0.00595535
0.0103567
0.015055
0.0200038
0.0251708
0.0305814
0.0362579
0.0421883
0.0484521
0.0552524
0.06270870000000001
0.0710142
0.0803465
0.0905484
0.101728
0.114075
0.127724
0.143073
0.160573
0.18054
0.20352
0.229999
0.259629
0.291806
0.326791
0.36556
0.40837
0.456104
0.5085460000000001
0.563841
0.621978
0.682532
0.742296
0.798218
0.85061
0.899435
0.9440190000000001
0.983674
1.01531
1.03663
1.04866
1.05445
1.05729
1.05941
1.06154
1.06359
1.06525
1.06657
1.06786
1.06928
1.0707
1.07203
1.07332
1.07465
1.07607
1.07763
1.07969
1.083
1.08867
1.09828
-0.00121144
-0.00358121
-0.0058448
-0.00795418
-0.009923009999999999
-0.0118104
-0.0135882
-0.0152485
-0.0168185
-0.0183047
-0.0197011
-0.0210031
-0.0222083
-0.0233157
-0.0243256
-0.0252393
-0.0260448
-0.0267432
-0.0273377
-0.027824
-0.0282052
-0.0284772
-0.0286395
-0.0286922
-0.0286352
-0.0284664
-0.0281855
-0.0277938
-0.0272911
-0.0266766
-0.0259506
-0.0251134
-0.0241636
-0.0230984
-0.0219115
-0.0205931
-0.0191321
-0.0175225
-0.0157641
-0.0138514
-0.0117794
-0.00954873
-0.00714605
-0.00455531
-0.00176253
0.00124947
0.00451256
0.00816711
0.0122869
0.0167563
0.0214944
0.0264694
0.0316225
0.0369507
0.0425157
0.0483421
0.0545532
0.0614148
0.0690462
0.07747610000000001
0.0867689
0.0969534
0.108127
0.120301
0.133729
0.149151
0.166863
0.186932
0.210067
0.236495
0.26562
0.297134
0.331632
0.370384
0.412978
0.460043
0.511944
0.566896
0.624538
0.684106
0.742922
0.798381
0.85062
0.899254
0.94354
0.9829059999999999
1.0144
1.03567
1.04768
1.05354
1.05644
1.0586
1.06078
1.06286
1.06455
1.0659
1.06723
1.06867
1.07011
1.07147
1.07278
1.07413
1.07556
1.07715
1.07925
1.08268
1.08867
1.09946
-0.00108872
-0.0032135
-0.00523226
-0.00709716
-0.00882107
-0.0104611
-0.01199
-0.0134012
-0.0147213
-0.0159572
-0.0171041
-0.0181593
-0.0191215
-0.019991
-0.0207689
-0.0214572
-0.0220463
-0.022538
-0.0229356
-0.0232361
-0.0234426
-0.0235522
-0.0235645
-0.023479
-0.0232947
-0.0230089
-0.0226201
-0.0221286
-0.0215336
-0.0208344
-0.0200301
-0.0191189
-0.0180982
-0.0169638
-0.0157076
-0.0143203
-0.0127958
-0.0111321
-0.00933168
-0.00739672
-0.00532549
-0.00310707
-0.000709623
0.00188887
0.00469402
0.00772667
0.0110157
0.0146829
0.0188075
0.0232752
0.0280024
0.0329488
0.0380352
0.0432881
0.0488345
0.0547092
0.0610287
0.0680205
0.07566680000000001
0.0839285
0.0930308
0.103145
0.114244
0.126371
0.139899
0.155473
0.173368
0.193642
0.216836
0.242944
0.27147
0.302486
0.336648
0.375135
0.417434
0.464188
0.5155380000000001
0.5699109999999999
0.627038
0.685639
0.743505
0.79852
0.850564
0.899017
0.943055
0.982149
1.01349
1.0347
1.0467
1.05262
1.05559
1.0578
1.06001
1.06213
1.06385
1.06524
1.06659
1.06806
1.06953
1.07091
1.07224
1.0736
1.07505
1.07666
1.07881
1.08235
1.08869
1.10084
-0.000958044
-0.00282101
-0.00457621
-0.00617518
-0.00762997
-0.00899611
-0.0102472
-0.0113782
-0.0124165
-0.0133698
-0.0142361
-0.0150154
-0.015709
-0.0163191
-0.0168483
-0.017299
-0.0176646
-0.0179466
-0.0181478
-0.0182657
-0.0183023
-0.0182546
-0.0181214
-0.0179008
-0.017591
-0.0171887
-0.0166915
-0.0160984
-0.0154078
-0.0146184
-0.0137299
-0.0127431
-0.0116586
-0.0104736
-0.00918017
-0.00777014
-0.00623604
-0.00457269
-0.00277233
-0.000820785
0.00129156
0.00356447
0.0060073
0.00863468
0.0114616
0.0145229
0.0178407
0.0215211
0.0256199
0.0300109
0.0346375
0.0394922
0.0445275
0.0497911
0.0553626
0.0612958
0.0677328
0.0747218
0.0821987
0.0903573
0.0994406
0.109458
0.120426
0.132621
0.146339
0.162065
0.180219
0.200744
0.223828
0.249337
0.277235
0.307931
0.341925
0.379853
0.421694
0.468311
0.519096
0.5729030000000001
0.629494
0.687117
0.744041
0.798646
0.850456
0.89872
0.942557
0.981382
1.01258
1.03373
1.04573
1.0517
1.05474
1.05699
1.05925
1.0614
1.06315
1.06457
1.06595
1.06745
1.06894
1.07034
1.07169
1.07307
1.07454
1.07616
1.07835
1.08201
1.08871
1.10244
-0.000809045
-0.00237485
-0.00383378
-0.00513827
-0.00629971
-0.00737102
-0.00832776
-0.00916698
-0.00991561
-0.0105824
-0.0111675
-0.0116734
-0.0121035
-0.0124616
-0.0127511
-0.012975
-0.0131286
-0.013213
-0.0132297
-0.0131759
-0.0130517
-0.0128538
-0.01258
-0.0122281
-0.0117954
-0.0112786
-0.0106752
-0.009984140000000001
-0.009204759999999999
-0.008336639999999999
-0.00737915
-0.00633157
-0.00519266
-0.00395705
-0.00261301
-0.00114907
0.00044292
0.00216768
0.00403612
0.00606484
0.008258140000000001
0.01061
0.0131291
0.0158393
0.0187608
0.021901
0.0252437
0.0288943
0.0328972
0.037146
0.0416137
0.0463052
0.0512464
0.0564545
0.0619448
0.06780319999999999
0.0741174
0.08091950000000001
0.0883816
0.0967249
0.105955
0.115953
0.126886
0.139137
0.153038
0.169037
0.187369
0.208011
0.230806
0.255639
0.283044
0.313555
0.347322
0.384612
0.426158
0.472507
0.522498
0.575782
0.631891
0.688605
0.744653
0.798885
0.850392
0.898412
0.942062
0.9805970000000001
1.01165
1.03276
1.04475
1.05078
1.05389
1.05618
1.05849
1.06067
1.06245
1.06389
1.06531
1.06683
1.06835
1.06977
1.07113
1.07254
1.07402
1.07566
1.07789
1.08166
1.08875
1.10431
-0.000668145
-0.00195255
-0.00313005
-0.0041539
-0.00503538
-0.00582546
-0.00650199
-0.0070644
-0.00753929
-0.00793601
-0.008256869999999999
-0.00850625
-0.00868935
-0.00881118
-0.00887599
-0.00888683
-0.00884126
-0.0087399
-0.00858311
-0.00836775
-0.00809237
-0.00775318
-0.00734711
-0.00687127
-0.00632217
-0.00569551
-0.0049873
-0.00419394
-0.00330993
-0.00233102
-0.00125478
-7.79661e-05
0.00120204
0.00258939
0.00409166
0.00571592
0.00746507
0.009339160000000001
0.0113422
0.0134822
0.0157649
0.0181994
0.020801
0.0235762
0.0265302
0.0296703
0.0329979
0.0365668
0.0404097
0.0444942
0.0488095
0.0533686
0.0581886
0.06325020000000001
0.06859800000000001
0.07429280000000001
0.08038480000000001
0.0871159
0.0947361
0.10324
0.112539
0.122596
0.13357
0.145866
0.160002
0.176276
0.194658
0.215189
0.237606
0.261994
0.289097
0.319331
0.352738
0.389585
0.430921
0.476802
0.5259200000000001
0.5786210000000001
0.6342370000000001
0.690203
0.745494
0.799299
0.850417
0.898118
0.941573
0.979812
1.01072
1.03179
1.04376
1.04985
1.05304
1.05538
1.05772
1.05994
1.06175
1.06322
1.06467
1.06622
1.06775
1.0692
1.07058
1.07199
1.07349
1.07515
1.07742
1.0813
1.0888
1.10651
-0.000540653
-0.00156988
-0.002491
-0.00325708
-0.00387877
-0.00440551
-0.00481631
-0.0051122
-0.00531971
-0.00544872
-0.00550315
-0.00548922
-0.00541371
-0.005283
-0.00510222
-0.00487486
-0.00460125
-0.00428226
-0.00391807
-0.00350644
-0.00304516
-0.00253067
-0.00195932
-0.00132688
-0.000628292
0.000142191
0.0009907539999999999
0.00192377
0.00294905
0.0040718
0.00529406
0.00661828
0.00804581
0.009577830000000001
0.0112161
0.0129648
0.0148293
0.0168125
0.0189179
0.0211512
0.0235205
0.0260348
0.0286968
0.031492
0.034407
0.0374494
0.0406581
0.0440644
0.047741
0.0517329
0.0560067
0.0605205
0.065233
0.0701595
0.0753813
0.0809602
0.0870296
0.0938773
0.101601
0.110136
0.119406
0.129452
0.140503
0.152984
0.167282
0.18365
0.202052
0.222252
0.244292
0.268564
0.295504
0.3253
0.358356
0.394934
0.435842
0.481095
0.529459
0.581565
0.636554
0.691827
0.746447
0.79977
0.850475
0.8978080000000001
0.941069
0.9790450000000001
1.00977
1.03081
1.04278
1.04892
1.05219
1.05458
1.05696
1.05921
1.06104
1.06255
1.06402
1.0656
1.06715
1.06862
1.07001
1.07144
1.07295
1.07463
1.07693
1.08093
1.08886
1.1091
-0.000412545
-0.00118357
-0.00184145
-0.00233715
-0.0026807
-0.00292125
-0.00303806
-0.00303382
-0.00293599
-0.00275551
-0.00249859
-0.00217387
-0.00179038
-0.00135629
-0.000877935
-0.000359769
0.000194332
0.000782572
0.00140397
0.00205867
0.00274869
0.00347606
0.00424421
0.00505773
0.00592206
0.0068428
0.007826609999999999
0.008880539999999999
0.0100106
0.0112216
0.0125172
0.0139024
0.0153824
0.0169625
0.0186472
0.0204426
0.0223539
0.024386
0.0265457
0.0288342
0.0312501
0.0337914
0.0364622
0.0392638
0.0421767
0.0451792
0.0482708
0.051515
0.0550629
0.0589876
0.06322700000000001
0.067675
0.07227160000000001
0.07708760000000001
0.08226849999999999
0.08792709999999999
0.0941473
0.101047
0.10873
0.117178
0.126407
0.136575
0.147818
0.160417
0.174741
0.191161
0.209488
0.229256
0.251001
0.275223
0.301951
0.331513
0.364433
0.400581
0.440793
0.485316
0.533012
0.5845939999999999
0.638891
0.693407
0.747339
0.800218
0.850563
0.897491
0.940539
0.978294
1.00881
1.0298
1.04178
1.04799
1.05134
1.05377
1.05619
1.05847
1.06034
1.06187
1.06337
1.06497
1.06655
1.06803
1.06945
1.07089
1.07241
1.0741
1.07643
1.08054
1.08891
1.11217
-0.00023279
-0.000645176
-0.00094515
-0.00108516
-0.00107499
-0.000960784
-0.000724728
-0.000372534
6.909720000000001e-05
0.000588536
0.00117723
0.00182438
0.00251926
0.00325281
0.00401841
0.00481175
0.00562661
0.0064617
0.00731691
0.00819166
0.00908901
0.0100106
0.0109602
0.011943
0.012965
0.0140306
0.0151449
0.0163139
0.0175427
0.0188359
0.0201993
0.0216401
0.0231673
0.0247909
0.0265203
0.0283631
0.0303202
0.0323896
0.0345726
0.0368713
0.0392907
0.041835
0.0445051
0.0472888
0.0501594
0.0530977
0.0561031
0.0592875
0.06277629999999999
0.06656280000000001
0.0706167
0.0749244
0.07945530000000001
0.08425009999999999
0.0894889
0.09528
0.101612
0.108515
0.11614
0.12454
0.133823
0.144158
0.155508
0.168148
0.18248
0.198754
0.21679
0.236349
0.257927
0.281936
0.308446
0.33799
0.370785
0.406301
0.445772
0.489532
0.536554
0.587638
0.641281
0.694976
0.748213
0.800709
0.850691
0.897199
0.94002
0.977552
1.00784
1.02876
1.04077
1.04706
1.05049
1.05297
1.05543
1.05774
1.05963
1.06119
1.06272
1.06435
1.06595
1.06745
1.06887
1.07033
1.07186
1.07356
1.07592
1.08014
1.08897
1.11584
-2.78708e-05
-3.39236e-05
6.62345e-05
0.000316318
0.000707386
0.0011988
0.00180464
0.00251693
0.00331138
0.00417655
0.00510239
0.00607671
0.00708773
0.008125810000000001
0.009184049999999999
0.0102583
0.0113398
0.0124274
0.0135221
0.0146225
0.0157325
0.0168528
0.0179864
0.0191384
0.0203153
0.0215213
0.0227615
0.0240436
0.0253745
0.026762
0.0282144
0.0297397
0.0313459
0.0330422
0.0348366
0.0367348
0.0387364
0.0408385
0.0430421
0.0453468
0.0477555
0.0502763
0.0529021
0.0556059
0.0583872
0.0612579
0.06420140000000001
0.0673446
0.0707792
0.0744315
0.0783225
0.0825256
0.0870455
0.091909
0.0972066
0.102986
0.109321
0.11628
0.123914
0.132302
0.141586
0.151903
0.163304
0.176077
0.190333
0.206228
0.224019
0.243579
0.264978
0.288819
0.315331
0.344708
0.376956
0.411816
0.450793
0.493926
0.540235
0.590679
0.643637
0.696518
0.7491
0.801225
0.850818
0.896922
0.9395289999999999
0.97683
1.00687
1.02772
1.03976
1.04613
1.04963
1.05217
1.05467
1.057
1.05892
1.06051
1.06207
1.06372
1.06534
1.06685
1.06829
1.06976
1.0713
1.07301
1.07538
1.0797
1.08901
1.12024
0.000132551
0.000446355
0.000865308
0.00143269
0.00214059
0.00295113
0.00387686
0.00490817
0.00602148
0.00720505
0.00844725
0.009734130000000001
0.0110525
0.0123922
0.0137461
0.0151091
0.01647
0.0178275
0.0191831
0.0205347
0.0218869
0.0232398
0.0245961
0.0259606
0.0273388
0.0287336
0.0301499
0.0315954
0.0330777
0.0346047
0.0361846
0.0378241
0.0395307
0.0413127
0.0431751
0.0451206
0.0471517
0.0492707
0.0514823
0.053784
0.0561718
0.0586495
0.0612164
0.0638681
0.06662220000000001
0.0694801
0.0723954
0.0754673
0.0788285
0.0824532
0.0863266
0.0905036
0.09504
0.0999673
0.105309
0.111118
0.11748
0.124461
0.132138
0.140485
0.149564
0.159717
0.171154
0.18389
0.197912
0.213642
0.231336
0.250673
0.272018
0.296021
0.322674
0.351636
0.382826
0.417109
0.455759
0.498371
0.544102
0.593788
0.645944
0.698024
0.749983
0.801692
0.850907
0.896645
0.939042
0.976125
1.00592
1.02668
1.03875
1.04519
1.04878
1.05138
1.0539
1.05627
1.05821
1.05982
1.06141
1.06308
1.06472
1.06626
1.06771
1.06918
1.07073
1.07245
1.07483
1.07924
1.08903
1.12556
0.000287492
0.000911521
0.00164239
0.00252399
0.00354929
0.00468221
0.00593409
0.00729319
0.008735730000000001
0.010249
0.0118188
0.0134287
0.0150631
0.0167102
0.0183614
0.0200113
0.0216455
0.0232632
0.0248664
0.0264529
0.028029
0.0295957
0.0311579
0.0327224
0.0342958
0.0358816
0.0374847
0.039112
0.0407688
0.0424582
0.0441837
0.0459492
0.0477601
0.0496243
0.0515469
0.0535328
0.0555893
0.0577221
0.0599361
0.062235
0.06461699999999999
0.06707780000000001
0.069618
0.0722397
0.0749518
0.0777515
0.08063380000000001
0.08366469999999999
0.08697390000000001
0.0906014
0.09452049999999999
0.0987624
0.103388
0.108415
0.113805
0.119646
0.126053
0.133029
0.140589
0.148791
0.1578
0.167887
0.179141
0.191639
0.205608
0.221408
0.238917
0.257778
0.279139
0.303516
0.330159
0.358485
0.388651
0.422532
0.46083
0.502848
0.548107
0.596966
0.6482830000000001
0.699618
0.750911
0.802139
0.850976
0.896373
0.938538
0.975418
1.00499
1.02567
1.03774
1.04425
1.04792
1.05058
1.05314
1.05553
1.0575
1.05914
1.06075
1.06245
1.0641
1.06565
1.06712
1.0686
1.07015
1.07187
1.07426
1.07874
1.08901
1.13206
0.000459212
0.00142669
0.00250207
0.00372921
0.00510205
0.00658706
0.008194130000000001
0.009909579999999999
0.01171
0.0135817
0.0155084
0.017471
0.0194513
0.0214349
0.0234115
0.0253752
0.0273081
0.0292088
0.0310793
0.032916
0.0347261
0.0365099
0.0382729
0.0400236
0.0417705
0.0435182
0.045273
0.0470431
0.0488336
0.0506472
0.0524864
0.054354
0.0562529
0.058189
0.0601667
0.0621906
0.0642658
0.06639920000000001
0.06860280000000001
0.0708884
0.0732611
0.0757158
0.0782516
0.0808644
0.08355269999999999
0.086335
0.0892221
0.0922967
0.0956789
0.099385
0.103392
0.107748
0.112487
0.117566
0.122954
0.128732
0.135012
0.141817
0.149178
0.157278
0.166343
0.17634
0.18736
0.199817
0.213966
0.22973
0.246814
0.265357
0.286708
0.311194
0.337517
0.36499
0.394559
0.428179
0.46606
0.507522
0.5522049999999999
0.6001880000000001
0.65062
0.701358
0.75202
0.802647
0.8510799999999999
0.896112
0.938015
0.974706
1.00408
1.02466
1.03673
1.04331
1.04706
1.04979
1.05238
1.0548
1.05679
1.05845
1.06009
1.0618
1.06348
1.06504
1.06652
1.06801
1.06956
1.07127
1.07366
1.0782
1.08894
1.14009
0.000656606
0.00201646
0.00348028
0.00508956
0.00683937
0.00870074
0.0106808
0.0127635
0.014927
0.0171572
0.0194356
0.0217405
0.0240521
0.0263541
0.0286354
0.03089
0.033097
0.035255
0.0373671
0.0394284
0.0414471
0.0434232
0.0453623
0.0472733
0.0491646
0.0510412
0.05291
0.0547809
0.0566606
0.0585554
0.0604716
0.0624142
0.06438679999999999
0.0663951
0.0684439
0.0705358
0.0726726
0.07486130000000001
0.07711800000000001
0.0794523
0.08187029999999999
0.0843795
0.08698549999999999
0.0896877
0.0924823
0.09538629999999999
0.0983953
0.101598
0.10511
0.108901
0.112957
0.117374
0.122153
0.127165
0.13245
0.138163
0.144314
0.150908
0.158151
0.166242
0.175212
0.184993
0.195913
0.208477
0.222725
0.238246
0.254955
0.273563
0.294989
0.31912
0.344815
0.371388
0.400618
0.434043
0.471409
0.512398
0.5563
0.603424
0.6529700000000001
0.70309
0.753243
0.803262
0.851233
0.895848
0.93749
0.973994
1.00317
1.02365
1.03572
1.04238
1.0462
1.049
1.05162
1.05406
1.05608
1.05776
1.05942
1.06116
1.06285
1.06443
1.06592
1.06741
1.06895
1.07066
1.07303
1.07761
1.08878
1.14959
0.0008335490000000001
0.00254588
0.00436025
0.006317
0.008412279999999999
0.0106205
0.0129466
0.0153724
0.0178765
0.0204444
0.0230551
0.0256848
0.0283115
0.0309177
0.0334915
0.0360266
0.0384986
0.0409069
0.0432558
0.0455398
0.047769
0.0499436
0.0520702
0.0541579
0.0562158
0.0582491
0.060266
0.0622785
0.06429509999999999
0.0663242
0.0683739
0.07044980000000001
0.0725546
0.074693
0.0768699
0.07909040000000001
0.081357
0.0836715
0.08603959999999999
0.08845939999999999
0.09093660000000001
0.0934918
0.0961385
0.0988772
0.101712
0.104648
0.107682
0.110934
0.114529
0.118415
0.122543
0.126962
0.131675
0.136592
0.141781
0.147409
0.153501
0.160083
0.167341
0.175386
0.184217
0.193964
0.204999
0.217569
0.231491
0.246681
0.263417
0.282156
0.303608
0.327247
0.352018
0.377906
0.406984
0.44023
0.477092
0.517524
0.560606
0.606865
0.655475
0.704806
0.754516
0.8040659999999999
0.851554
0.895717
0.93706
0.973347
1.00233
1.02266
1.03473
1.04146
1.04535
1.04822
1.05088
1.05334
1.05537
1.05708
1.05876
1.06052
1.06223
1.06382
1.06531
1.06681
1.06835
1.07004
1.07239
1.07698
1.08854
1.15518
0.00100497
0.00306061
0.00522017
0.00752452
0.009970710000000001
0.012535
0.0152209
0.0180079
0.0208746
0.0238058
0.0267784
0.0297666
0.0327468
0.0357003
0.0386146
0.0414829
0.0442773
0.0469977
0.0496486
0.0522231
0.0547326
0.0571757
0.0595589
0.0618909
0.06418020000000001
0.0664299
0.06864729999999999
0.07084459999999999
0.07303
0.0752129
0.07740279999999999
0.079606
0.08182739999999999
0.08407249999999999
0.0863447
0.08865000000000001
0.090992
0.0933701
0.0957866
0.0982403
0.100739
0.103302
0.105946
0.108684
0.111531
0.114486
0.117526
0.120766
0.12435
0.128255
0.132408
0.136781
0.14136
0.14614
0.15119
0.156659
0.16266
0.169275
0.176632
0.184782
0.193734
0.203578
0.214593
0.226913
0.240477
0.255509
0.27225
0.29099
0.312253
0.33524
0.359043
0.384672
0.413708
0.446708
0.48317
0.522849
0.565322
0.610772
0.658235
0.706738
0.75608
0.805186
0.85221
0.895932
0.936907
0.97293
1.00164
1.02178
1.03381
1.04058
1.04453
1.04747
1.05016
1.05264
1.05469
1.05641
1.05812
1.0599
1.06163
1.06322
1.06472
1.06622
1.06775
1.06943
1.07175
1.07635
1.08831
1.14996
0.0012175
0.00369799
0.00628296
0.00901279
0.0118854
0.0148797
0.0179967
0.0212127
0.0245062
0.0278609
0.0312508
0.034647
0.0380231
0.0413586
0.0446398
0.0478592
0.0509843
0.0540172
0.0569626
0.0598117
0.0625792
0.0652636
0.06787169999999999
0.0704133
0.07289619999999999
0.07532369999999999
0.0777043
0.0800506
0.08237120000000001
0.0846756
0.0869738
0.089272
0.0915769
0.0938968
0.09623760000000001
0.09860629999999999
0.101007
0.103446
0.105931
0.108463
0.111052
0.113703
0.116417
0.119198
0.122059
0.125015
0.128054
0.131245
0.134709
0.138463
0.142467
0.146686
0.151135
0.155866
0.160909
0.166363
0.172403
0.179137
0.186586
0.19472
0.203555
0.213241
0.224092
0.23636
0.249928
0.264897
0.281583
0.300174
0.320833
0.343
0.366253
0.391785
0.420776
0.45351
0.489481
0.528455
0.5704129999999999
0.615072
0.661364
0.709089
0.758002
0.8066
0.853183
0.896496
0.9370889999999999
0.972787
1.00117
1.02106
1.03297
1.03975
1.04376
1.04675
1.04947
1.05197
1.05403
1.05578
1.05751
1.0593
1.06104
1.06265
1.06416
1.06565
1.06718
1.06884
1.07113
1.07574
1.08814
1.135
0.00144888
0.00439009
0.00743247
0.0106142
0.0139343
0.0173757
0.0209365
0.0245893
0.028313
0.032091
0.0358945
0.0396921
0.0434549
0.0471606
0.0507945
0.0543464
0.0577814
0.0611045
0.0643174
0.0674101
0.07040200000000001
0.0732911
0.07608620000000001
0.0787991
0.0814386
0.0840119
0.08653139999999999
0.0890107
0.09146020000000001
0.0938895
0.0963067
0.09871770000000001
0.10113
0.103552
0.105991
0.108454
0.11094
0.113458
0.116019
0.118619
0.121261
0.123959
0.126721
0.129543
0.132406
0.135327
0.138341
0.141541
0.145019
0.14876
0.15274
0.156939
0.161392
0.166179
0.17132
0.176875
0.182983
0.189683
0.19695
0.204779
0.213436
0.223187
0.234087
0.246282
0.259742
0.274641
0.291212
0.309454
0.329353
0.35087
0.373967
0.399298
0.42824
0.460622
0.496023
0.534542
0.575891
0.619706
0.664937
0.711817
0.7601329999999999
0.808303
0.854432
0.8973179999999999
0.937565
0.972872
1.00085
1.02045
1.03219
1.03896
1.04302
1.04607
1.04882
1.05133
1.0534
1.05516
1.05692
1.05873
1.06048
1.0621
1.06361
1.0651
1.06662
1.06826
1.07052
1.07512
1.08803
1.11308
0.00170152
0.00514609
0.008688939999999999
0.0123659
0.0161767
0.0201087
0.0241575
0.0282915
0.0324894
0.036735
0.0409967
0.0452402
0.0494345
0.0535555
0.0575874
0.0615154
0.0653038
0.06896099999999999
0.0724836
0.07585989999999999
0.079113
0.0822408
0.08525240000000001
0.08816060000000001
0.0909731
0.0936993
0.0963545
0.09895
0.101497
0.104008
0.106491
0.108956
0.111416
0.11388
0.116353
0.118837
0.121333
0.123847
0.126392
0.128961
0.131553
0.134188
0.136895
0.139695
0.142573
0.14554
0.148632
0.151947
0.15554
0.159352
0.163395
0.167699
0.172284
0.177145
0.18229
0.187818
0.193805
0.200292
0.207311
0.215062
0.223967
0.23395
0.244765
0.256616
0.269849
0.284657
0.30098
0.318795
0.338112
0.35912
0.381991
0.407225
0.436065
0.467948
0.5028550000000001
0.541056
0.58178
0.624634
0.668865
0.7148870000000001
0.762529
0.810292
0.855939
0.898363
0.938256