/*--------------------------------*- C++ -*----------------------------------*\
| =========                 |                                                 |
| \\      /  F ield         | OpenFOAM: The Open Source CFD Toolbox           |
|  \\    /   O peration     | Version:  v1812                                 |
|   \\  /    A nd           | Web:      www.OpenFOAM.com                      |
|    \\/     M anipulation  |                                                 |
\*---------------------------------------------------------------------------*/
FoamFile
{
    version     2.0;
    format      ascii;
    class       volScalarField;
    location    "1000";
    object      k;
}
// * * * * * * * * * * * * * * * * * * * * * * * * * * * * * * * * * * * * * //

dimensions      [0 2 -2 0 0 0 0];


internalField   nonuniform List<scalar> 
11121
(
2.677259500412809e-07
6.489058551141943e-06
4.015748052157624e-05
0.000136678196687616
0.0003395542877279707
0.0006913377041771019
0.001214825280209163
0.001892315225293691
0.002665484910587246
0.003462132946350761
0.004224814223583627
0.004921475943813618
0.005542552929860113
0.00608794980613099
0.006559979273348612
0.006963768528492219
0.00730589516361898
0.007593316802976889
0.007832654085983777
0.008029892935844435
0.008190252723195115
0.008318167151267597
0.008417327265785762
0.008490752046804877
0.008540863405814562
0.008569559528465399
0.008578281791908999
0.008568070777201212
0.008539612282637695
0.008493273949558268
0.008429133639826386
0.008347001167251273
0.00824643571517391
0.008126762768093319
0.007987097344977
0.007826385888186113
0.007643488689098557
0.007437339104133609
0.007207230485047896
0.006953296242150213
0.006677219724152602
0.006383100317104291
0.006078162128157069
0.005772658074513917
0.005478179596110942
0.005204103615674072
0.004953091121976524
0.004725191833180337
0.00452163730820581
0.004343645235223891
0.004191418278579901
2.676490144056495e-07
6.470385311024175e-06
3.999406078849573e-05
0.0001360481149642272
0.0003379235502216575
0.0006880926299975066
0.001209630025862428
0.001885502920250558
0.002658050919839962
0.003455292320130701
0.004219570296451183
0.004918443231014205
0.005541890150304206
0.006089863665881263
0.006564594471429816
0.006971141784911603
0.007316043741440222
0.007606241822285978
0.007848355826764672
0.008048380402603623
0.008211549106940578
0.008342312727150586
0.008444380833289371
0.008520791740057616
0.008573987519274644
0.008605887712626811
0.008617956898831193
0.00861126163203353
0.008586517590184526
0.008544127488476135
0.008484210768993678
0.008406626411285062
0.008310990691052371
0.008196692759174005
0.008062913083927146
0.007908654076402106
0.007732799898919632
0.007534234848495844
0.007312066611490144
0.007066016558276664
0.006797034286795663
0.00650812425614854
0.006205177064108872
0.00589726815160783
0.005595635305130255
0.005310864383589242
0.005048871865585816
0.004809614704844391
0.004593747626185285
0.004402910981563411
0.00423776133585663
0.004097935695989473
2.673678015597675e-07
6.447389033565819e-06
3.980585464974953e-05
0.0001353369975867514
0.0003360959767750174
0.000684452017546824
0.001203746713353981
0.001877633219438438
0.002649157060181305
0.003446601520838941
0.004212123598244856
0.004912897143250662
0.005538441848073927
0.006088749238515307
0.00656596294340882
0.006975070778714772
0.00732256940675636
0.007615382491505123
0.007860129222439517
0.008062813244060071
0.008228682510694859
0.00836220476390342
0.00846710734325005
0.008546446296029192
0.00860268120713779
0.008637749120851121
0.008653132650654746
0.008649917738700998
0.008628841857109696
0.008590333151177026
0.00853454145451963
0.008461362350987302
0.008370455768269412
0.008261261290636351
0.008133013963396872
0.007984767658433731
0.007815439313308532
0.007623898034151857
0.007409138774899602
0.007170597841165431
0.006908672955917765
0.006625470247557645
0.006325660258484024
0.006017052815561426
0.005710203592017857
0.005416388741048461
0.005143960992996746
0.004894015110245189
0.004666795760706346
0.004463923745695169
0.004286483227419645
0.004134536735467635
0.004007167807461296
2.668184373932049e-07
6.418028517841387e-06
3.957884084225232e-05
0.0001344952600938577
0.0003339485937019139
0.0006801764203350866
0.001196793632795104
0.001868197224148037
0.002638222708922028
0.003435477851788137
0.004201947552875137
0.004904404310487152
0.005531885189149776
0.006084405896156893
0.006564007118889715
0.006975592056272518
0.00732560608524759
0.007620948606901651
0.007868234644197038
0.008073475674087486
0.008241934822556543
0.008378098982046559
0.00848571636138087
0.008567864243409015
0.008627023090507138
0.008665150145338705
0.008683747598974504
0.008683920716536444
0.00866642669976889
0.008631714761306091
0.008579958296405678
0.008511080211013933
0.008424772660561002
0.008320512907433755
0.008197578155442196
0.008055064740904739
0.007891922048787975
0.00770702036603814
0.007499285654123497
0.007267951630553557
0.007012992192489196
0.006735781261497683
0.006439936075735075
0.006132078305009378
0.005821910020128177
0.005520791275335769
0.005238415601747367
0.004978325249250582
0.004740606756771135
0.004526444745371181
0.004337315817729695
0.004173693532105283
0.004035039840072905
0.003919916453627249
2.659876320023644e-07
6.382180554565154e-06
3.931283042828264e-05
0.0001335233532896028
0.0003314849341395605
0.0006752790057500905
0.001188807033164587
0.001857274342539043
0.002625392475380151
0.003422150573010669
0.004189371589289751
0.004893403854691852
0.005522761743558489
0.006077488701067897
0.006559508808240987
0.006973625644786206
0.007326219747110448
0.007624154547342755
0.007874031466980446
0.008081862270758402
0.008252919627591442
0.008391705876907454
0.008501988285101039
0.008586865375643078
0.00864884011397144
0.008689892867521996
0.008711549190313066
0.00871493774404686
0.008700839161111579
0.008669726350650333
0.008621797163134754
0.008557000460011378
0.0084750567339447
0.008375474684049939
0.00825756593922451
0.008120461988412795
0.007963141261568552
0.007784481553304787
0.00758336498353844
0.007358879617922544
0.007110678854271153
0.006839559000371974
0.006548256018094216
0.006242282563898721
0.005930306860187776
0.005623298275795149
0.005331896348265129
0.005062432415630445
0.004814961470594288
0.004590177992685259
0.004389919350504527
0.004215052837985908
0.004065417061217645
0.003939893818960327
0.003836570709434196
0.00375294021141668
0.003686088381204848
0.003632844501389988
0.003589883245932701
0.003553786634019142
0.003521081743543774
0.003488272121353619
0.003451877444733478
0.003408488913288481
0.003354838899631
0.003287874745349486
2.649499242888624e-07
6.342254562484353e-06
3.902437424853276e-05
0.0001324795383474508
0.0003288478360211873
0.0006700318402351874
0.001180205181899937
0.001845392266929134
0.002611220814297632
0.003407109133573532
0.004174749865099499
0.004880074211037304
0.005511057756299032
0.006067786770477725
0.006552071462016638
0.006968614832156617
0.00732372943953799
0.007624237763109417
0.00787672139497906
0.008087184842800701
0.008260901746355786
0.008402380681683431
0.008515398575275179
0.008603066080589378
0.008667900328843884
0.008711897674513707
0.008736601446238409
0.008743159907753283
0.008732375182393727
0.008704743585358894
0.008660488253687273
0.00859958518059057
0.008521783879188614
0.008426624033852428
0.008313449957278488
0.008181425970351673
0.008029558815999255
0.007856739157106761
0.007661824636819505
0.007443802655717312
0.007202089079976327
0.006937026460914353
0.006650609457699926
0.006347332355098044
0.006034787464302136
0.005723337409522771
0.005424169550198691
0.005145669458534696
0.004888974571588565
0.004654393714838946
0.004443690051990517
0.004258109738590316
0.004097873055687032
0.003962199039607123
0.003849440427661003
0.003757275446972684
0.003682904464515125
0.003623215503482098
0.003574903378789684
0.003534545111741473
0.003498645548589335
0.003463671209564257
0.00342608847835135
0.003382415970864673
0.003329292155391588
0.003263550240714265
0.003182285606118342
2.637855220921598e-07
6.300074974094211e-06
3.872437755679147e-05
0.0001313998917300849
0.0003261227873497066
0.0006645935548070867
0.001171224210026849
0.001832833339878341
0.002595974863837106
0.00339053605736105
0.004158120072077108
0.004864268600621843
0.005496445521009178
0.00605476072622192
0.006540912720155211
0.006959509769852388
0.007316802965410406
0.007619580195389849
0.007874408943612061
0.008087290779531313
0.008263502707742695
0.008407559587556453
0.008523245549228344
0.008613678692765787
0.008681384177150029
0.008728367804121307
0.008756184422210989
0.008765995030243869
0.008758613729410093
0.00873454752433128
0.008694030890025725
0.008637054690770748
0.008563388632294604
0.00847259801065442
0.008364056916023219
0.008236961236639015
0.008090346818290545
0.00792312258352691
0.007734136945632826
0.007522309571411139
0.007286878174492256
0.007027823129432026
0.006746517680104184
0.00644656236668256
0.006134543468552339
0.005820116646633549
0.005514586889085857
0.005227520162879778
0.00496203916086316
0.004718337676847264
0.004497830886411084
0.004302094714256955
0.004131702515007506
0.003986204616413865
0.003864228575010187
0.003763655235017322
0.003681816920236231
0.003615675367336387
0.003561956917508447
0.003517242077893661
0.003478020412441803
0.003440728197634284
0.003401786086103619
0.00335764876771983
0.003304870210201092
0.003240178744170129
0.00316054869156444
0.00306325223035713
2.622536568790515e-07
6.249421528334472e-06
3.837335888887351e-05
0.0001301499623145798
0.0003229848877408266
0.0006583462969302255
0.001160902988540098
0.001818350508092637
0.002578278353529247
0.003371113767341255
0.004138378976701258
0.004845196765084083
0.005478492109151005
0.006038361111963536
0.00652635831533957
0.006946971960324292
0.007306374095052669
0.007611308274528797
0.0078683249232098
0.008083425994964817
0.00826190113486415
0.008408286787292179
0.008526396119844777
0.008619382833570128
0.008689809859620706
0.008739706088619922
0.008770588481393931
0.008783608326514146
0.008779541406912944
0.008758930186713381
0.008722070275111819
0.00866900124244839
0.00859949791787885
0.008513122318161346
0.008409251909439228
0.008287095725505124
0.008145708769626508
0.007984016242474199
0.007800864282000222
0.0075951245787646
0.007365896587364611
0.007112868247622439
0.006836896632464376
0.006540812183475088
0.006230267782020369
0.005914112797537029
0.005603442140423068
0.005308659770700222
0.005034944829253394
0.004782578081598531
0.004552697749404056
0.00434719370035598
0.004166970300180287
0.004011895163640347
0.003880868771957077
0.003771982021177643
0.003682710924320384
0.003610102789916297
0.00355092531204046
0.003501769950755648
0.003459116869367725
0.003419377526122654
0.003378932749192866
0.003334180125621379
0.003281596696129098
0.003217813542874075
0.003139690603499953
0.003044375893903453
0.002929336072469823
0.002792357223225322
2.601381130838221e-07
6.185501089194989e-06
3.794295143942383e-05
0.0001286360254969747
0.0003192101423464439
0.0006508643662437379
0.001148576804885585
0.001801079407572537
0.002557184413652114
0.003347965770245243
0.004114866346954172
0.0048225189704924
0.005457189260459513
0.006018993287956196
0.006509309231747661
0.006932464554621463
0.007294513782601775
0.007602122582167986
0.007861796925086892
0.008079518425916112
0.008260575639841164
0.008409519457924595
0.008530189779552196
0.008625774776590451
0.008698870185868906
0.008751516794959089
0.008785240563542469
0.008801170150886753
0.008800074634172138
0.008782560915277385
0.008748967255303637
0.0086994116843063
0.008633709078089488
0.008551432687223973
0.008451960288407971
0.008334501195461657
0.008198114504018618
0.008041729977716053
0.007864187253990988
0.007664318156678403
0.007441112009775776
0.007194022444674882
0.006923482655252415
0.006631657899615352
0.006323315704350681
0.006006391033239781
0.005691488179637509
0.005389619665268568
0.005108304649363325
0.004847866206350963
0.00460906635956895
0.004394121649903986
0.004204289978887373
0.004039775307514335
0.00389976631856004
0.003782577257349315
0.003685839707064637
0.003606696572507168
0.003541964647037352
0.003488251983387403
0.003442033630372526
0.003399700166003627
0.003357597062015467
0.003312070264229695
0.003259526256687973
0.003196505546804027
0.003119759708758651
0.003026316924570929
0.002913522389791313
0.002779050535721437
0.002620908123687872
0.002437483707916285
2.577029554772191e-07
6.115312997965671e-06
3.747796151334932e-05
0.0001270108264875898
0.0003151655699495302
0.0006428354555086985
0.001135285935288772
0.00178230763113323
0.002534008635067046
0.003322195465342257
0.004088289569377936
0.004796439772929077
0.005432190587786001
0.005995751851591602
0.006488344992358495
0.006914140760636218
0.00727907093286361
0.0075897098333693
0.007852499234787164
0.008073374392345407
0.008257591031624776
0.008409677619741974
0.008533459730392637
0.008632117833382179
0.008708246456262361
0.008763895161447164
0.008800600102463026
0.008819511919001623
0.008821417275097006
0.0088069455899884
0.008776480823911598
0.008730188595772894
0.008667940442946489
0.008589355158878006
0.008493843189797403
0.008380635857201038
0.008248806749433448
0.008097293372603415
0.007924931323969195
0.00773052207812211
0.007512970046941424
0.007271543365316391
0.007006325748620072
0.006718904997354314
0.006413233312133288
0.006096341434531975
0.005778240983587532
0.005470207381296388
0.005181162102166102
0.004912976245482363
0.004666050033940967
0.00444227027805967
0.004243253452529656
0.004069570158802168
0.003920732965846259
0.003795310582126507
0.003691113796020678
0.003605397563665972
0.003535038519868857
0.003476668119432236
0.003426760920763387
0.003381690587767363
0.003337771691871594
0.003291304120273555
0.003238630560633978
0.003176208374218043
0.003100687939939026
0.003008983408400859
0.00289832195910775
0.002766266878097448
0.002610730595676012
0.002430028887148451
2.552571596812606e-07
6.046076496104395e-06
3.702221608861817e-05
0.000125421075720552
0.0003112049767114415
0.0006349379524106256
0.00112210112961351
0.001763447306592097
0.002510329313408212
0.00329531358607833
0.00405986959278634
0.00476773138786963
0.005403787405817314
0.005968335185257456
0.006462468645240885
0.006890234040804263
0.007257469219996026
0.007570680242304957
0.007836261398211478
0.008060110971899303
0.008247454370134109
0.008402795293400529
0.008529940961110243
0.008632059847974414
0.008711731862782535
0.008770954452025685
0.008811261351683516
0.008833715349895827
0.00883911744244505
0.008828103584249519
0.008801113781299167
0.008758332692977053
0.008699694052195082
0.008624850700491859
0.008533242930822395
0.008424134018490995
0.008296629593942161
0.008149694313740342
0.007982178936318919
0.007792876050052001
0.007580634773505968
0.007344582900613698
0.007084521798416992
0.006801552253342441
0.006498910564081474
0.006182778920369444
0.005862479286192622
0.005549200969334899
0.005252778586435308
0.004977192979352767
0.004722677658613941
0.004490622959544176
0.004282921930807584
0.004100467930117513
0.003943089137118732
0.003809620945403235
0.003698072502110572
0.003605828830662392
0.003529840127297282
0.003466770575532992
0.003413100494535809
0.003365191469302689
0.003319332007971224
0.003271781676078841
0.003218826279483721
0.003156847804317781
0.003082403269358506
0.002992299649250541
0.002883650961773411
0.002753911483395912
0.002600898534073232
0.002422851823751328
2.527222678769104e-07
5.975493281964745e-06
3.656045170061222e-05
0.0001238142126476714
0.0003072030816291295
0.0006269432402247689
0.001108692972573168
0.001744122293609128
0.00248581280759131
0.003267115284630952
0.004029587174338496
0.00473662903117124
0.00537267101858957
0.005937680709781479
0.006432756745461842
0.006861848151109313
0.007230713151723031
0.007545807676199084
0.00781350302705036
0.008039691934596107
0.008229608167618545
0.008387776264532534
0.008518032842868601
0.008623565279437306
0.008706899864013703
0.008769998053857834
0.008814232375962881
0.008840603123773601
0.008849902324383534
0.008842745865498663
0.008819603882087161
0.008780715709985319
0.00872605418300277
0.008655315525653103
0.008567933010931412
0.008463163835025817
0.008340125007841153
0.008197806807298588
0.008035087607258951
0.007850772729476228
0.007643686126413028
0.007412858262538599
0.007157871538262401
0.006879427262613632
0.006580142056625875
0.00626540083742659
0.005943763481021113
0.005626123911799314
0.005323024695076137
0.005040475169962355
0.004778732237509587
0.004538812435140948
0.004322844863584912
0.004131998614562173
0.003966386705211607
0.003825101340739177
0.00370635503807202
0.003607674461282516
0.003526095408190227
0.003458324461138319
0.003400854656044219
0.003350040691012612
0.003302149714344125
0.003253406194007315
0.003200045267052372
0.003138380618959477
0.003064883219533674
0.002976259494260834
0.002869515281883662
0.002741998453019026
0.002591431151860914
0.002415974621015851
2.499356703111405e-07
5.899517611808876e-06
3.606739363580211e-05
0.0001221047621206859
0.000302954299543748
0.000618463593408563
0.001094470496851072
0.001723600995488297
0.002459729795827469
0.003237045743910658
0.003997211501875866
0.004703292472741906
0.005339279623437923
0.005904689655364764
0.006400624513028929
0.006830915524412977
0.007201223961098379
0.00751794708095993
0.007787435156699672
0.008015589157994879
0.008207676538797955
0.008368275518248447
0.008501280549106824
0.008609894662495513
0.008696616495334051
0.008763325725897825
0.008811263683102248
0.008841420950872045
0.008854571598302052
0.008851305285768631
0.008832057635225505
0.008797138480530729
0.008746572710829228
0.008680115770338656
0.008597215096835037
0.008497082745199778
0.008378793743725074
0.008241322279958595
0.008083553567123414
0.007904305292783548
0.007702393277600688
0.007476784621435546
0.007226896237730985
0.006953102774543207
0.006657478892981928
0.006344657980005094
0.006022407519376929
0.005701212197144738
0.005392169556232618
0.005103140537580595
0.004834512363726838
0.004587055010146598
0.004363134445599132
0.004164183548177522
0.00399058350337646
0.00384167204503199
0.003715862741408949
0.003610828534161201
0.003523698481093182
0.003451229117598257
0.003389932261046059
0.003336160369546419
0.00328616326977636
0.003236134647463694
0.003182264103181627
0.003120802991479416
0.003048142566159038
0.002960894594239864
0.002855961284888391
0.002730586571481539
0.002582397451833547
0.002409474539660987
2.468259072069986e-07
5.816562362748039e-06
3.553362037186617e-05
0.0001202614207237067
0.0002983829889181726
0.0006093528900907401
0.001079201532347826
0.001701578709206796
0.002431751772872513
0.003204824340843844
0.003962587512765626
0.004667752995561424
0.005303833269700917
0.005869840536666004
0.00636688722590547
0.006798663463441716
0.00717070614289084
0.007489328369880791
0.007760837341080248
0.007991123698866556
0.008185472001151
0.008348496678740047
0.008484129671644861
0.008595572225503981
0.008685336560216814
0.008755206185239927
0.008806421813070738
0.008839969535641111
0.008856614058320233
0.008856930261987719
0.008841333372831033
0.008810108524743931
0.008763413284679399
0.008701026416574144
0.008622482314747543
0.008526968126854328
0.00841349463535309
0.008280977282437157
0.008128266349246309
0.007954164682495725
0.007757472993245838
0.007537109067468473
0.007292358196865367
0.007023318909002273
0.006731584009790465
0.006421093143583962
0.006098858887557878
0.005774929455543068
0.005460737587200472
0.005165336712182277
0.004890054010945687
0.004635506810171996
0.004403980688584075
0.004197192134481256
0.004015806004490013
0.003859415215707376
0.003726641226626566
0.003615309732488084
0.003522649586633479
0.003445473223811891
0.003380316048844784
0.00332353200088287
0.003271356791051515
0.003219956738004946
0.003165480052250418
0.003104120738517228
0.003032195795762324
0.002946227571209419
0.002843018815796695
0.002719711879648192
0.00257383870402084
0.00240339702485916
0.002207030494050659
0.001984468044607274
0.001737442186420828
0.00147366063752567
0.001208312470268214
0.0009529381965694708
0.0007159894943504765
0.0005082061863307108
0.0003353533218283224
0.0001978904105607625
0.0001057700893836581
5.076556426507111e-05
2.047845443975883e-05
6.971479373655541e-06
2.077897484135847e-06
5.610628308869064e-07
1.482082964789913e-07
4.804943168763169e-08
2.579562527726468e-08
2.08164725678758e-08
2.435323154992566e-07
5.730249643169969e-06
3.498215009366348e-05
0.0001183627444016742
0.0002936801799650918
0.0005999793703708887
0.001063472671721263
0.001678844374314863
0.002402794959253881
0.003171395280770987
0.003926602507845671
0.004630788943409528
0.005266977720696218
0.005833626649575955
0.006331908765660873
0.006765376154979292
0.007139431239487964
0.00746028546513933
0.007734179140607124
0.007966962005444295
0.008163898041334472
0.008329595322232748
0.008467985921327267
0.008582266268321646
0.008674952393154604
0.00874780407754415
0.008802069056967815
0.008838738543526469
0.008858580397236091
0.008862170675021062
0.008849924026616801
0.008822123956582509
0.008778954379359093
0.00872029032898936
0.008645720034191428
0.008554478858058167
0.008445553417281326
0.008317803881859161
0.008170024388556173
0.00800097434994684
0.007809418161623954
0.007594219189535231
0.007354545601573738
0.007090255579257275
0.006802519257187521
0.00649466111817401
0.006173000656307951
0.005847094537718013
0.005528424483392368
0.005226819707315982
0.004945163260247578
0.004683973269924317
0.004445220667922192
0.004230894220383754
0.004041946325458639
0.003878235859378319
0.003738603674884528
0.003621038137906301
0.003522875807309248
0.003440991056205725
0.003371947346943005
0.003312103480982295
0.003257683994645202
0.003204831015221484
0.003149655264982327
0.00308829816076174
0.003017007782366083
0.002932222329146853
0.002830649488761548
0.002709332782326023
0.002565709733517748
0.002397693936814334
0.002203854994801845
0.001983842263865304
0.001739282170639334
0.001477438147964333
0.001213277478710886
0.0009586837976412617
0.0007220518467878279
0.0005140265563720441
0.0003406136668644281
0.0002021354869351917
0.0001084989574467756
5.23143260516893e-05
2.126469816660526e-05
7.298458923917687e-06
2.190440173474525e-06
5.944957516914848e-07
1.569759072930511e-07
5.012378572802326e-08
2.626686530200462e-08
2.094144212912262e-08
1.942517127246945e-08
1.893998539840132e-08
2.003577769330229e-08
2.816336734898753e-08
7.189687691291948e-08
3.015999908507907e-07
1.522989107857036e-06
8.170801963887653e-06
4.631451197696958e-05
0.0002786196230149704
0.001579676723326662
0.007230835836311439
0.02486844090395502
0.06621593375618086
0.1572517461051616
0.4298434617695513
2.402515656566863e-07
5.64533495219668e-06
3.444229151103263e-05
0.0001165073141134828
0.000289083139579338
0.0005907943764363121
0.001047985831484248
0.001656300467666966
0.002373824084065212
0.00313760934336606
0.003889832528009691
0.004592580574647893
0.005228419725538096
0.005795258665035389
0.006294363095037447
0.006729170380475641
0.007104964417914242
0.007427863260358143
0.007704041454035536
0.007939303070875373
0.008138883382509272
0.00830737580681648
0.008448703600233805
0.008566032843112961
0.008661878845513964
0.008737909593931543
0.008795384667743832
0.008835303130417426
0.008858438092466735
0.008865368967483007
0.008856511934607163
0.008832149550579838
0.008792460740173357
0.008737411456472522
0.008666626436443267
0.00857941695010498
0.008474780372892872
0.008351552279857339
0.008208487191566747
0.008044302145972994
0.007857717708261023
0.007647537563065609
0.00741282090308365
0.00715321736552902
0.006869536302443071
0.00656456818401433
0.006243987764067331
0.005916787500465774
0.005594284324906659
0.005286916966081488
0.004999252221887505
0.004731801569712485
0.004486210826784769
0.004264702591084906
0.004068492833234434
0.003897699203262675
0.003751385474816153
0.003627710504327914
0.003524126681697184
0.003437577072685449
0.003364658325087784
0.003301738040274197
0.003245033021235836
0.003190664841234933
0.003134711067992448
0.00307326572641848
0.003002513804123451
0.002918815226371518
0.002818787748973804
0.002699379674149738
0.002557935674856817
0.002392284777467362
0.002200920531174943
0.001983411915405933
0.001741281881853481
0.001481377262520362
0.001218379008536636
0.0009645262051700177
0.0007282039707759018
0.0005199240220740657
0.0003459336083787605
0.0002064528288128403
0.000111302358787303
5.391637948222875e-05
2.208294593859444e-05
7.642025374390173e-06
2.309853752627494e-06
6.302587575267879e-07
1.664194637854659e-07
5.236880906400686e-08
2.677542153387478e-08
2.107303916221001e-08
1.947720579176267e-08
1.896791785932228e-08
2.00364714400962e-08
2.807243067242491e-08
7.139016791230594e-08
2.990814446217694e-07
1.51061664068855e-06
8.111902221527864e-06
4.609872300504984e-05
0.0002788648987094766
0.001589531690532485
0.007289472442296271
0.02503577053710853
0.06654448669911897
0.1579117721350477
0.4316931557642949
2.368962132190442e-07
5.559292515878968e-06
3.389733120131355e-05
0.0001146369862346111
0.0002844482574433886
0.0005815145575314392
0.0010322705960879
0.001633269403290224
0.002343967266269785
0.003102429762719355
0.003851097699854267
0.004551805390320652
0.005186682921580944
0.005753130090420752
0.006252460387022399
0.006687997713824705
0.007064921088231754
0.007389275320718048
0.007667195219870723
0.007904472141996091
0.008106352116740016
0.008277450701385459
0.008421681095024452
0.008542192624695405
0.008641379781181836
0.008720816254786545
0.008781769658912076
0.008825240318562185
0.008851997170691706
0.008862610428904294
0.008857481386533909
0.008836870005060261
0.00880092098587648
0.008749688401756243
0.008682853710742004
0.008599802337608518
0.008499553851094176
0.008380911552925941
0.008242590316882631
0.008083273160726616
0.007901647200957205
0.0076964670087121
0.007466699367219699
0.007211817887417617
0.006932324648551507
0.006630537293813008
0.006311516540402741
0.005983654815780222
0.005658023354266036
0.005345582896932922
0.005052282685645252
0.004778810955023052
0.004526678233647086
0.004298305624951996
0.004095134955806636
0.003917517796130004
0.003764731021382394
0.003635104530060848
0.003526211839593339
0.003435070884845044
0.003358316808623539
0.00329233018813487
0.003233323604967622
0.003177401594457854
0.003120612630352226
0.003059008186268529
0.002988715637637334
0.002906022267938256
0.002807460974421979
0.002689888610551693
0.002550558920747302
0.002387216358124957
0.002198276904849269
0.001983228396846874
0.001743491978386844
0.001485512964829794
0.00122365862922605
0.0009705140221556415
0.0007344760097094186
0.0005259216074570834
0.000351329693162987
0.0002108523310754159
0.0001141869446862417
5.557590913703765e-05
2.293553323797704e-05
8.003335757259312e-06
2.436641646602203e-06
6.685351148999177e-07
1.765954301798953e-07
5.4799662985705e-08
2.732490615554058e-08
2.121204669167554e-08
1.952990753149791e-08
1.899537274345061e-08
2.003642326995964e-08
2.79799637360184e-08
7.08779389044064e-08
2.96537905663595e-07
1.498119834380447e-06
8.052289361590873e-06
4.587772388698038e-05
0.000279073741237685
0.001599216671186908
0.00734739312515396
0.02520077187956542
0.06686899247491677
0.1585689532369335
0.4335502261243043
2.331688388836869e-07
5.46473530612794e-06
3.330118388961382e-05
0.0001125959181273072
0.0002793994044596655
0.0005714223470307236
0.001015204602738889
0.00160829142816655
0.002311629667364009
0.003064386989598959
0.003809286734822026
0.004507874716512062
0.005141796833288622
0.005707930059408801
0.006207570940380834
0.006643888620795379
0.007021931862297544
0.007347662111884144
0.007627178108810922
0.007866273307413709
0.008070224993846279
0.00824368780534643
0.008390566772604007
0.008514025680136641
0.008616289875640882
0.008698937153083591
0.008763235459068023
0.008810181226411515
0.008840534684358196
0.008854851877371978
0.008853513709616708
0.008836752655685134
0.008804677960796073
0.008757300306679216
0.008694495259970968
0.008615666645069893
0.00851993399837337
0.008406058827686727
0.008272677545940273
0.008118406950160424
0.007941887571308651
0.007741829222790359
0.007517123871562315
0.007267098424615685
0.006991987089916673
0.00669367581667175
0.006376638760910997
0.006048669484194432
0.005720557424586588
0.005403671509537764
0.005105096041389723
0.004825796134581272
0.004567295220770909
0.00433223361870064
0.004122274287724398
0.003937988857431157
0.003778856540167584
0.003643374427040109
0.00352923862665985
0.003433545673692267
0.003352972985046219
0.003283917078056431
0.003222588585587844
0.003165077136486054
0.003107404648405865
0.003045583284139473
0.002975686698416591
0.002893933693581441
0.002796776132089208
0.002680982239018437
0.002543716120769281
0.002382637256673398
0.002196082343345416
0.001983457304068453
0.001746092318763732
0.00149000630521825
0.001229257286715478
0.0009767799755521422
0.000740980149756974
0.0005321090069682126
0.0003568697815315862
0.0002153820697961749
0.0001171837742036278
5.731078150206054e-05
2.383180590784481e-05
8.386527411833139e-06
2.572344865652879e-06
7.098154455106562e-07
1.876397894694553e-07
5.744975437212051e-08
2.792271905706117e-08
2.136000282315773e-08
1.958362003084175e-08
1.902245166686881e-08
2.003563476943386e-08
2.78857524487799e-08
7.035918498192197e-08
2.939652840082919e-07
1.485482781053622e-06
7.991903508023362e-06
4.565127106163362e-05
0.0002792449188656927
0.001608726809101695
0.007404587311318333
0.02536346546661734
0.06719031605834327
0.1592198363060807
0.4354125380866679
2.290819649409197e-07
5.362403100796878e-06
3.265959961302926e-05
0.0001104054664759068
0.0002739922185504372
0.0005606366151361181
0.0009970123622166406
0.001581753640067351
0.00227742747372947
0.003024395995473165
0.003765685354155039
0.004462519683973995
0.005095997303558182
0.005662380992632963
0.006162989939166189
0.006600808167276667
0.006980711472466244
0.007308533591730443
0.00759029173013146