/*--------------------------------*- C++ -*----------------------------------*\
| =========                 |                                                 |
| \\      /  F ield         | OpenFOAM: The Open Source CFD Toolbox           |
|  \\    /   O peration     | Version:  v1812                                 |
|   \\  /    A nd           | Web:      www.OpenFOAM.com                      |
|    \\/     M anipulation  |                                                 |
\*---------------------------------------------------------------------------*/
FoamFile
{
    version     2.0;
    format      ascii;
    class       volScalarField;
    location    "1000";
    object      nut;
}
// * * * * * * * * * * * * * * * * * * * * * * * * * * * * * * * * * * * * * //

dimensions      [0 2 -1 0 0 0 0];


internalField   nonuniform List<scalar> 
11121
(
2.047856482513193e-13
2.538447420583799e-11
4.3622305946266e-10
3.023754534765897e-09
1.273542764204583e-08
3.885751458617111e-08
9.370438092654581e-08
1.882875996594195e-07
3.282072801135333e-07
5.134301133787617e-07
7.410170951406039e-07
9.99104416268199e-07
1.285354044602869e-06
1.611541540718893e-06
1.981560659568934e-06
2.39788518914833e-06
2.862232402244622e-06
3.376865929207212e-06
3.943708169241927e-06
4.564537449133903e-06
5.241004576918299e-06
5.974603666023083e-06
6.76662951607712e-06
7.618127802774419e-06
8.529835036647312e-06
9.502112783933329e-06
1.053488054434445e-05
1.162754825434347e-05
1.277895474305509e-05
1.398732253408887e-05
1.525024616858556e-05
1.656474430266202e-05
1.792743043007361e-05
1.933490227432392e-05
2.078452946064057e-05
2.227594623247825e-05
2.381373732324939e-05
2.541201814242477e-05
2.710177087527399e-05
2.894175326185516e-05
3.103309539949099e-05
3.353546684633487e-05
3.667660170846184e-05
4.073113651056401e-05
4.590867478553131e-05
5.203457410870004e-05
5.791627537720265e-05
6.381568212782415e-05
7.049142603499634e-05
7.799291435170132e-05
8.633869945316562e-05
2.042018153804973e-13
2.521575552679977e-11
4.32567602618077e-10
2.996187610951419e-09
1.261751526461556e-08
3.851113091451977e-08
9.293887977124496e-08
1.869372282626471e-07
3.262056324508846e-07
5.108218757124862e-07
7.379286850499812e-07
9.964079528050865e-07
1.282585710768111e-06
1.608735657698237e-06
1.978876688775852e-06
2.395549499021058e-06
2.860524711766123e-06
3.376124337608666e-06
3.94433365670688e-06
4.567001145094735e-06
5.245857646423145e-06
5.982489915584171e-06
6.778301078094237e-06
7.634464258040764e-06
8.551866346046261e-06
9.531045966285027e-06
1.057212945614604e-05
1.167476497519051e-05
1.283805951021103e-05
1.406052661786991e-05
1.534005776747781e-05
1.667394032364215e-05
1.805896475687963e-05
1.949170033000054e-05
2.096908508538995e-05
2.248958756797661e-05
2.405536819547637e-05
2.567609492396418e-05
2.737529847152505e-05
2.920021982757124e-05
3.12356037248577e-05
3.361999013659502e-05
3.655815749986059e-05
4.031262671600937e-05
4.513605561985308e-05
5.106979351821238e-05
5.748133567608202e-05
6.32068941384614e-05
6.968990277727804e-05
7.698789237000031e-05
8.513042821825894e-05
9.410969457002394e-05
2.034813368708843e-13
2.503427877335765e-11
4.287299749665299e-10
2.967481873304927e-09
1.249502022752688e-08
3.815080920142061e-08
9.213905932102148e-08
1.855161062340196e-07
3.240781980856439e-07
5.08014280232059e-07
7.345498520477126e-07
9.933071072233214e-07
1.279301497121627e-06
1.605297510926048e-06
1.975439653392066e-06
2.392336606208449e-06
2.857828256213807e-06
3.374287559970537e-06
3.943766907498805e-06
4.568184991335357e-06
5.249348433055383e-06
5.988927316255843e-06
6.788417996325171e-06
7.64909970739888e-06
8.57198201325491e-06
9.557746754737909e-06
1.060668789062482e-05
1.17186486400977e-05
1.289295959941938e-05
1.412838362386965e-05
1.54230772118789e-05
1.67745857022454e-05
1.81799049469246e-05
1.963567221418315e-05
2.113860581993442e-05
2.268641183231693e-05
2.427953319571708e-05
2.59243321111157e-05
2.763852696854163e-05
2.945981268041094e-05
3.14582877395328e-05
3.375208718908807e-05
3.652257992288271e-05
4.001856908685504e-05
4.452255944782047e-05
5.021382980282133e-05
5.679152223950313e-05
6.267560782958241e-05
6.897693896314608e-05
7.608001534283104e-05
8.402416117009033e-05
9.281367847178309e-05
0.0001024101471411361
2.025599597588292e-13
2.482924321076995e-11
4.245030527335191e-10
2.936157302251872e-09
1.236185431022665e-08
3.775934615726994e-08
9.126850499307378e-08
1.839629209842769e-07
3.2173804333658e-07
5.048973930137507e-07
7.307498863786405e-07
9.896569112475654e-07
1.275302594855357e-06
1.600947425555262e-06
1.970859912662619e-06
2.387716224867694e-06
2.853426018598431e-06
3.370416622214941e-06
3.940813411432244e-06
4.566612059899067e-06
5.24970189272391e-06
5.991841960615421e-06
6.794624295656749e-06
7.659431505981944e-06
8.587385989681118e-06
9.579294430571699e-06
1.063559093805796e-05
1.175627774703445e-05
1.294086626360751e-05
1.418832276560702e-05
1.54970257788885e-05
1.686474809364194e-05
1.828868854863362e-05
1.976560326167478e-05
2.129213346020576e-05
2.286551143968621e-05
2.448496275008019e-05
2.615431887247686e-05
2.78865903636223e-05
2.971144706022553e-05
3.168652138685508e-05
3.391278345188629e-05
3.655197542717178e-05
3.98378540310853e-05
4.405728111397159e-05
4.944286014245731e-05
5.586484069972544e-05
6.219807560007355e-05
6.832820483989688e-05
7.524431569579382e-05
8.299454210336686e-05
9.15945335104075e-05
0.0001010185116650139
0.000111194403332009
2.014336992436886e-13
2.460126965482657e-11
4.199073266216383e-10
2.902409032420731e-09
1.221910946885946e-08
3.734116354593443e-08
9.034107831604057e-08
1.8231247398837e-07
3.19257697670418e-07
5.016018381322825e-07
7.267397342439481e-07
9.858306471529486e-07
1.271086326364964e-06
1.596304928951254e-06
1.965878136752651e-06
2.382541069669318e-06
2.848265534125175e-06
3.365520925466642e-06
3.936497987561243e-06
4.563264414497558e-06
5.247790797615856e-06
5.99192748493009e-06
6.797367688137016e-06
7.665604562252948e-06
8.597879754634259e-06
9.595127350701232e-06
1.065791702871694e-05
1.178639556711258e-05
1.298022948546643e-05
1.423855232882214e-05
1.555992191732264e-05
1.694229693303338e-05
1.838305136932703e-05
1.987906509347476e-05
2.142696724053103e-05
2.302368040647319e-05
2.466753431255095e-05
2.636040300663541e-05
2.811156750978222e-05
2.994426043943937e-05
3.190593183401007e-05
3.408276460989192e-05
3.661700852460057e-05
3.972071930493126e-05
4.366870209854756e-05
4.873206766699644e-05
5.497453875786123e-05
6.177161924701607e-05
6.77438458083791e-05
7.448363141710534e-05
8.204716339791333e-05
9.046070686930761e-05
9.971075857236572e-05
0.0001097375434602165
0.0001204339995256338
0.0001316512408587156
0.0001432099952789447
0.0001549157630435739
0.0001665745200672285
0.0001780054180583977
0.0001890476059474813
0.0001995596477129453
0.0002094117143609954
0.0002184723927133918
0.000226593252542304
0.0002335950191325142
2.001784347957339e-13
2.43630894001188e-11
4.151849232449374e-10
2.86794540252177e-09
1.20736746653258e-08
3.691519847846407e-08
8.939559984538582e-08
1.806282727544862e-07
3.167261340182843e-07
4.982425926785223e-07
7.226656443604474e-07
9.820209180314575e-07
1.266947781483209e-06
1.591813062290229e-06
1.961134512112417e-06
2.377701581139385e-06
2.843541472298112e-06
3.361150195361939e-06
3.932766681834943e-06
4.560510859784768e-06
5.246413703217775e-06
5.99239681817248e-06
6.800237544392149e-06
7.671527433567617e-06
8.607621651007054e-06
9.609583217360534e-06
1.067812582851692e-05
1.181355316319945e-05
1.301569676307714e-05
1.428385719864327e-05
1.561675654218574e-05
1.701251148849527e-05
1.846863994652356e-05
1.998212750833618e-05
2.154961225496951e-05
2.316780838346315e-05
2.483439799715557e-05
2.654979284432854e-05
2.832040497971263e-05
3.016431929567452e-05
3.212038177494681e-05
3.426139151839647e-05
3.671077055830833e-05
3.965883116965714e-05
4.336736046625571e-05
4.813367791103371e-05
5.414420468548205e-05
6.107185725823984e-05
6.722957901088977e-05
7.38022266665872e-05
8.118685591050522e-05
8.941869684783294e-05
9.849551978509516e-05
0.0001083695816546231
0.0001189446566502188
0.0001300795948018132
0.000141598365650871
0.0001533047970176575
0.0001649988941827452
0.000176491046715028
0.0001876108449752704
0.0001982084847033803
0.0002081484880428813
0.0002172972829301846
0.000225507675169934
0.0002326041421038457
0.0002383730253551504
1.988518212539572e-13
2.412107855625194e-11
4.104364770810758e-10
2.833387424881107e-09
1.19276261039199e-08
3.648524184221929e-08
8.843313989979431e-08
1.788942833352478e-07
3.140842152913414e-07
4.946831197099598e-07
7.182754625189199e-07
9.776920253012627e-07
1.26215979232751e-06
1.586567974078466e-06
1.955560507847971e-06
2.371991010814773e-06
2.837953659644405e-06
3.355978850445195e-06
3.928357900751344e-06
4.557260275732725e-06
5.244767627577371e-06
5.992857955084086e-06
6.803377271380642e-06
7.678005421600316e-06
8.618207776019901e-06
9.625164640083081e-06
1.069967339348496e-05
1.184207943769663e-05
1.305229159719386e-05
1.432980079268454e-05
1.567361081866726e-05
1.708212049043716e-05
1.855306249587224e-05
2.008354299702006e-05
2.167020672418939e-05
2.330960274366734e-05
2.499892919691275e-05
2.673749644069933e-05
2.852947098109264e-05
3.038872211580254e-05
3.234679985815748e-05
3.446502710218487e-05
3.685096630419714e-05
3.967710715737992e-05
4.319284031604659e-05
4.770310066574264e-05
5.344692093359027e-05
6.024422234139881e-05
6.677065271309012e-05
7.318681033029189e-05
8.040100108681998e-05
8.845676770417558e-05
9.736243427517303e-05
0.0001070819261935887
0.0001175300748823906
0.0001285742774327651
0.0001400429894942096
0.0001517397384583619
0.0001634597563338558
0.0001750054624955791
0.0001861971729567228
0.0001968765260525267
0.0002069018713843193
0.0002161368118939449
0.0002244347742908989
0.0002316235792059367
0.0002374942930049809
0.0002417980489327594
1.972575952919192e-13
2.384876264330125e-11
4.051948886601579e-10
2.795554530045784e-09
1.176844981958889e-08
3.601770601887883e-08
8.738682353099604e-08
1.770052787670344e-07
3.11191717253569e-07
4.907518302930659e-07
7.133598827649815e-07
9.725934578112569e-07
1.256298961257626e-06
1.579879098246851e-06
1.948099654352093e-06
2.363881863092503e-06
2.829395458877513e-06
3.347226741526585e-06
3.919751565727389e-06
4.549233197380147e-06
5.237862837461813e-06
5.987743398122596e-06
6.800834231840963e-06
7.67880935862901e-06
8.622709655912596e-06
9.632208374807928e-06
1.070434362515266e-05
1.185074470216713e-05
1.307373359252768e-05
1.436747766297707e-05
1.572458957471236e-05
1.714558110311355e-05
1.862978876287884e-05
2.017535864454245e-05
2.177945660916144e-05
2.343870060139735e-05
2.514990896216063e-05
2.691141699227851e-05
2.872544107083223e-05
3.060226397089555e-05
3.256732354704634e-05
3.467243499907253e-05
3.701190568403844e-05
3.974212750148183e-05
4.309699782123039e-05
4.737652969103533e-05
5.285444471762001e-05
5.949645174178871e-05
6.633201851270583e-05
7.260178206202972e-05
7.965292889982226e-05
8.753704720606584e-05
9.627272211819368e-05
0.000105835453419978
0.0001161514345590501
0.0001270973785513864
0.0001385073612521831
0.0001501858722188936
0.000161924484084887
0.0001735183848105202
0.0001847788683326055
0.0001955388026888977
0.0002056498163236439
0.0002149719900973215
0.0002233587178586536
0.0002306407053572152
0.0002366135720312512
0.0002410330703737423
0.0002436205269231651
0.0002440785182294164
1.952442615286842e-13
2.352985656692656e-11
3.992038185537676e-10
2.752833477600424e-09
1.159041246014275e-08
3.550005468762786e-08
8.624237413681324e-08
1.749694255092575e-07
3.081278938168787e-07
4.86666889376348e-07
7.083540808183455e-07
9.677377651719692e-07
1.25075770452089e-06
1.57348865477492e-06
1.940821628078589e-06
2.355720444099925e-06
2.820401998095068e-06
3.337481364743213e-06
3.909400987272725e-06
4.538508577590532e-06
5.227098418924459e-06
5.977380071440212e-06
6.791376549993639e-06
7.670676955275552e-06
8.615888372542104e-06
9.625578742297928e-06
1.069962419152856e-05
1.184939477890472e-05
1.307682717125614e-05
1.438332112858225e-05
1.575335399643976e-05
1.718651807245899e-05
1.86829099052798e-05
2.024145143791119e-05
2.185997004094402e-05
2.353547916137719e-05
2.526476787389581e-05
2.704551779492672e-05
2.887835927563405e-05
3.077056755292942e-05
3.274243716416503e-05
3.483757138013809e-05
3.713792879517369e-05
3.9782615618549e-05
4.298465363864625e-05
4.702979543483514e-05
5.222076594463478e-05
5.868827385196611e-05
6.59122293846384e-05
7.204326541243282e-05
7.893828282461622e-05
8.665551430271481e-05
9.522292561901249e-05
0.0001046272668483889
0.0001148063059338691
0.0001256467867490939
0.0001369895016919517
0.0001486411596784611
0.0001603908258587659
0.000172027271142628
0.0001833531122742617
0.0001941923193681318
0.000204389309837626
0.000213799969480817
0.0002222769965194972
0.0002296534900043996
0.0002357293993344282
0.0002402651582969065
0.000242985489484909
0.0002435938241601103
0.0002417940648098458
0.0002373110385191436
1.930326615641526e-13
2.319489166932122e-11
3.930047751479236e-10
2.708898630347782e-09
1.140780269229847e-08
3.496984616998963e-08
8.507237931570495e-08
1.728972077195438e-07
3.050371484359455e-07
4.826096371901302e-07
7.035010660777504e-07
9.635219049271142e-07
1.246255615462095e-06
1.568590630205396e-06
1.935559495283134e-06
2.350151376949035e-06
2.814601283196676e-06
3.331496037388701e-06
3.903275199706973e-06
4.532288475180214e-06
5.220843047811846e-06
5.971176942621734e-06
6.7853669978829e-06
7.665112168867065e-06
8.611264590635703e-06
9.622927728359089e-06
1.069915357396969e-05
1.185176155125673e-05
1.308281780193612e-05
1.439385093110854e-05
1.577172488470286e-05
1.7214410142451e-05
1.872166751186218e-05
2.029223260427329e-05
2.192391757262396e-05
2.361381212652417e-05
2.535869546918146e-05
2.715588567702553e-05
2.900492928447265e-05
3.091078633391007e-05
3.288946471439967e-05
3.497726240616546e-05
3.724456160303368e-05
3.981388844868282e-05
4.287860379467475e-05
4.671054467164275e-05
5.162555189797732e-05
5.783226565124439e-05
6.50196872941801e-05
7.154233945243202e-05
7.82860800706082e-05
8.584199983582216e-05
9.424513627082118e-05
0.0001034920980887239
0.0001135317100619072
0.0001242610045127597
0.0001355283487004154
0.000147143874588362
0.0001588953899979542
0.0001705662693199512
0.0001819510564113394
0.0001928649512530908
0.000203144875570047
0.000212641975434385
0.0002212076381421354
0.0002286768465308697
0.0002348536019561382
0.0002395030230470817
0.0002423534865043354
0.0002431096887000194
0.0002414737170542753
0.000237165734757632
1.908507966444768e-13
2.287048889852226e-11
3.870364949698863e-10
2.666619254615833e-09
1.123141968543412e-08
3.44537105503549e-08
8.392030318054784e-08
1.708277527961433e-07
3.019032342757365e-07
4.784348433504162e-07
6.984435387971172e-07
9.589509250024721e-07
1.241432497361393e-06
1.563531519404241e-06
1.930437081331811e-06
2.345189288182982e-06
2.810066245320194e-06
3.327634469627441e-06
3.900327932862193e-06
4.53048742936431e-06
5.220421345818716e-06
5.972379361826489e-06
6.788402449483774e-06
7.669885391724893e-06
8.616544966394736e-06
9.624464916711896e-06
1.070333349697838e-05
1.185914982186445e-05
1.309411252959958e-05
1.44099110706026e-05
1.580020229375491e-05
1.725263269981413e-05
1.876916898441593e-05
2.035002188844104e-05
2.199372164123065e-05
2.369750561371097e-05
2.545793633049783e-05
2.727181696085204e-05
2.913771628623622e-05
3.105871221563136e-05
3.304728632604133e-05
3.513356091261756e-05
3.737802926408767e-05
3.988905983145768e-05
4.284259763120366e-05
4.649409648427664e-05
5.115565568927093e-05
5.707725790061414e-05
6.412114661755451e-05
7.110098796963657e-05
7.770327014944691e-05
8.510552155042789e-05
9.334992731947281e-05
0.0001024423028647633
0.0001123419655730218
0.0001229561737802689
0.0001341414058582557
0.0001457122175534821
0.0001574563570729288
0.0001691529007055825
0.0001805890843158002
0.0001915716538573726
0.0002019299183824781
0.0002115098541860402
0.0002201609708673841
0.0002277196128254201
0.0002339935002831275
0.000238752371420897
0.0002417284617356842
0.0002426281302854675
0.0002411521130302639
0.0002370163114515044
1.886261956136806e-13
2.254546226402727e-11
3.810924506042648e-10
2.624571570458986e-09
1.105566507108295e-08
3.393651177966358e-08
8.275436964695605e-08
1.687026717974444e-07
2.986215844525851e-07
4.739521242585945e-07
6.92835951877056e-07
9.526025022732004e-07
1.235058278159161e-06
1.556692638426443e-06
1.923217915733668e-06
2.337840341917591e-06
2.802953575075366e-06
3.321179974860636e-06
3.895032997828013e-06
4.526934000872116e-06
5.219256044679657e-06
5.974189061368054e-06
6.793232971412076e-06
7.675860007019387e-06
8.616653038746231e-06
9.623566101289244e-06
1.070535750414364e-05
1.186470076071137e-05
1.310393302443249e-05
1.442493092011122e-05
1.58289656937837e-05
1.730146970526161e-05
1.88304268652223e-05
2.042064186136334e-05
2.207396757127018e-05
2.378947688897351e-05
2.556428069205768e-05
2.739479475572876e-05
2.927849903323659e-05
3.121660907367114e-05
3.3218506697775e-05
3.530915215791697e-05
3.754078094951705e-05
4.000946244335185e-05
4.287458072553329e-05
4.637324466976002e-05
5.080891253845016e-05
5.646822921100735e-05
6.337258824416848e-05
7.070026526509003e-05
7.717192260221602e-05
8.442874021273709e-05
9.252019018349513e-05
0.0001014611189045323
0.000111221067231041
0.0001217174761332096
0.0001328153137951374
0.0001443343561954139
0.0001560633299468177
0.0001677780345456532
0.0001792591637625446
0.0001903053769607392
0.0002007383216680707
0.0002103984319163246
0.0002191328029752516
0.0002267786153235817
0.0002331469408930724
0.0002380120174179482
0.0002411100829366044
0.0002421495077882762
0.0002408301173491503
0.0002368639617846575
1.862311602311842e-13
2.220342141194579e-11
3.748903183713741e-10
2.580873623888506e-09
1.087340605385823e-08
3.34006026503134e-08
8.154537169861903e-08
1.664932066249069e-07
2.951918803807625e-07
4.692268668544932e-07
6.868467805308412e-07
9.454437712128865e-07
1.227673327327329e-06
1.548453357406997e-06
1.914088590840933e-06
2.327973215984666e-06
2.792640500222599e-06
3.310815037376149e-06
3.885152840610498e-06
4.518217359015928e-06
5.212451078922218e-06
5.969798703121508e-06
6.790573217655889e-06
7.670751801382373e-06
8.607231274867353e-06
9.616155805874735e-06
1.070050797117692e-05
1.18630584029021e-05
1.310626881185967e-05
1.443217932864406e-05
1.584227791970167e-05
1.73373521268018e-05
1.889089973256814e-05
2.049528387212543e-05
2.215799816028658e-05
2.388242829874244e-05
2.566824542422109e-05
2.751273042975924e-05
2.941282541478279e-05
3.136804690682503e-05
3.33848582577356e-05
3.548356195606909e-05
3.770898553956884e-05
4.014575228523834e-05
4.293708283919931e-05
4.630182820323501e-05
5.053537755432413e-05
5.595890527726208e-05
6.272965103351935e-05
7.032069827507283e-05
7.667060433412546e-05
8.378942236334916e-05
9.173326505395608e-05
0.0001005256514799111
0.0001101461893839332
0.0001205225751451755
0.0001315286515232552
0.0001429901188652577
0.0001546975910040179
0.0001664245013895209
0.0001779457029546818
0.0001890521163842359
0.0001995576880178744
0.0002092969553603739
0.0002181140749947938
0.0002258465355922892
0.000232308373619761
0.0002372781704619953
0.0002404962639351289
0.0002416733367589779
0.0002405087069045971
0.0002367109626810844
1.836155354657764e-13
2.183891945878907e-11
3.683434893666223e-10
2.534975262873074e-09
1.068268427518371e-08
3.284189274180736e-08
8.029028162551108e-08
1.642110863354158e-07
2.916700558352518e-07
4.644045765141957e-07
6.807692428075764e-07
9.382101800489875e-07
1.220324873267961e-06
1.540180256746076e-06
1.904741097138659e-06
2.317579753515495e-06
2.781343685657615e-06
3.298833329982651e-06
3.872818744142627e-06
4.505970344418596e-06
5.200760375683309e-06
5.95888909915064e-06
6.779698006004897e-06
7.656545790919095e-06
8.593925026126361e-06
9.604202332238066e-06
1.069043832702908e-05
1.185549625868782e-05
1.310195013164089e-05
1.443197811714082e-05
1.584723843378335e-05
1.734872522253084e-05
1.893312023035982e-05
2.055727419068598e-05
2.223236369670309e-05
2.396559187074139e-05
2.575988375826493e-05
2.761463415180408e-05
2.952746604309924e-05
3.149706517325887e-05
3.352747337716112e-05
3.563462168607162e-05
3.785620373366433e-05
4.026592572315249e-05
4.29922314016554e-05
4.623871717618695e-05
5.029523635301377e-05
5.550515668805932e-05
6.20949587076192e-05
6.967049392071054e-05
7.619334199514105e-05
8.317852932630305e-05
9.097899994830537e-05
9.962549304086841e-05
0.0001091070158779313
0.0001193614170364006
0.0001302717506238353
0.0001416703158449521
0.0001533504835046196
0.0001650841968953818
0.0001766411562357544
0.0001878049042024841
0.0001983816749559283
0.0002081997842365629
0.0002170999417003158
0.0002249194132372838
0.0002314747904313485
0.0002365488058714898
0.0002398859512771388
0.0002411994828865562
0.0002401885874596145
0.0002365587954023233
0.0002300312937218161
0.0002203139705039491
0.0002070183177334232
0.0001893551302181806
0.000167919021529946
0.0001450584075763999
0.0001223039556406357
0.0001000942881337247
7.801967126374749e-05
4.974318039217306e-05
3.323703330531296e-05
2.004480302977058e-05
8.961551577901328e-06
3.248314956986005e-06
1.008158947085841e-06
2.807175936167133e-07
7.61210727936968e-08
2.52673916859416e-08
1.386097175121643e-08
1.140854002170609e-08
1.808935930826299e-13
2.146736501828593e-11
3.617237779060808e-10
2.488744155985145e-09
1.049103402797909e-08
3.228163218229507e-08
7.903517617983308e-08
1.619390761080827e-07
2.881886050666239e-07
4.596865053663066e-07
6.74904242141476e-07
9.313490133394795e-07
1.213791636655105e-06
1.533024914867605e-06
1.896785063361811e-06
2.308817786594088e-06
2.771846985958942e-06
3.288689111174447e-06
3.862153359358703e-06
4.494945188776589e-06
5.189552006039975e-06
5.947624348140026e-06
6.768292396817788e-06
7.644339463856434e-06
8.582428441780658e-06
9.593790097664592e-06
1.068155935914971e-05
1.184868516370705e-05
1.309784043228994e-05
1.443131691026959e-05
1.585090076525127e-05
1.735772368869678e-05
1.895208170214972e-05
2.059830592029361e-05
2.228958452985292e-05
2.403445959869379e-05
2.583786329667724e-05
2.770124954348937e-05
2.96236872535954e-05
3.160410752003572e-05
3.364509352443856e-05
3.575889420340271e-05
3.797668932166494e-05
4.036236762166615e-05
4.303166738408976e-05
4.617493391243628e-05
5.007292708827632e-05
5.507125892672066e-05
6.142756583866661e-05
6.88728344457636e-05
7.574948831236957e-05
8.260636979037813e-05
9.026821967464341e-05
9.87721711496265e-05
0.0001081158909064551
0.0001182470457957805
0.0001290580495411745
0.0001403883705471498
0.0001520349800770226
0.0001637692458198664
0.0001753564935028195
0.0001865733706283361
0.0001972185168962877
0.0002071138097969679
0.0002160960737833981
0.0002240018452261369
0.000230649845253461
0.0002358267230076598
0.0002392811281793001
0.0002407291119563951
0.0002398700888405026
0.0002364069070705551
0.0002300559525924813
0.0002205210857901727
0.0002074133163364808
0.0001899606774967538
0.0001686488601392275
0.0001458134159383921
0.000123045794960788
0.0001008355623637854
7.880413722011266e-05
5.062412999008151e-05
3.369203511922257e-05
2.054843971865153e-05
9.271951620943587e-06
3.392381788021054e-06
1.06088505201931e-06
2.970274305193559e-07
8.053078111108301e-08
2.633307860077266e-08
1.410343336972914e-08
1.147042947485857e-08
1.083412701414726e-08
1.073641744994916e-08
1.152209331370241e-08
1.640098006926137e-08
4.23219213708305e-08
1.79137832941033e-07
9.105885779751372e-07
4.892610766520131e-06
2.714709819972598e-05
0.0001413245955978687
0.0004940313854297493
0.001203939980181944
0.002594485490914239
0.004902265037033312
0.007836302771575765
0.007554905058112111
1.78215478395683e-13
2.110719203770354e-11
3.553421062185722e-10
2.444237153048414e-09
1.030627855941888e-08
3.173953583851355e-08
7.781422361077191e-08
1.597156921113697e-07
2.847642347297096e-07
4.550326371530199e-07
6.691229341502485e-07
9.246217014564241e-07
1.207592118484975e-06
1.526466062369323e-06
1.889779272973685e-06
2.301458576930804e-06
2.764303655738987e-06
3.281136468254865e-06
3.85479073338407e-06
4.487994851742264e-06
5.183223624111622e-06
5.941930256460801e-06
6.762442904150255e-06
7.635236901293613e-06
8.574312333667345e-06
9.586979205934601e-06
1.067643876709022e-05
1.184571657823461e-05
1.309757418941465e-05
1.44344055201286e-05
1.585811378419687e-05
1.736996377454465e-05
1.897040251672394e-05
2.063863514431132e-05
2.234619970393882e-05
2.410377233450393e-05
2.591793222354075e-05
2.779138798212822e-05
2.972408688881015e-05
3.171522069930411e-05
3.376649374021249e-05
3.588745215769528e-05
3.810409137014959e-05
4.047223398894443e-05
4.309672521231476e-05
4.615473056717085e-05
4.99129841502259e-05
5.470892209105942e-05
6.082645411229948e-05
6.813727834897091e-05
7.534662900192725e-05
8.208293313930677e-05
8.96124146516456e-05
9.797847257075786e-05
0.0001071869285000904
0.0001171948476153947
0.0001279039444467114
0.000139161236968097
0.0001507680327686604
0.0001624960290100257
0.0001741070311203034
0.0001853714076884927
0.0001960804771961413
0.0002060496057383301
0.0002151113989145314
0.0002231012101598089
0.0002298394688698348
0.000235116475412363
0.0002386849967151209
0.0002402640629845592
0.0002395536608145426
0.0002362543446733579
0.0002300780351731346
0.0002207246531438783
0.0002078043424159908
0.000190563811692485
0.0001693863962545485
0.0001465789696480469
0.0001237996342507423
0.0001015866166286262
7.959401894553315e-05
5.152691673762902e-05
3.416785571402595e-05
2.106542213635937e-05
9.593361968565204e-06
3.543344379285142e-06
1.116747143433452e-06
3.144579692711956e-07
8.527803372059599e-08
2.74867617260968e-08
1.436576024747111e-08
1.153602039267503e-08
1.085899947517714e-08
1.075002259055348e-08
1.152204428181724e-08
1.634998631903388e-08
4.203505447238417e-08
1.777149699350144e-07
9.036867134201792e-07
4.860749299977372e-06
2.704418897497043e-05
0.0001414209445240947
0.000495180407139175
0.001209376177255633
0.002608243847903344
0.004920421680516998
0.007852124908968508
0.007571949702308343
1.755015839532415e-13
2.074632642042691e-11
3.489743389523605e-10
2.399848806893764e-09
1.012154270888991e-08
3.119426226289673e-08
7.657426806688933e-08
1.57427937737869e-07
2.811836548785192e-07
4.500758598445209e-07
6.628380259938741e-07
9.171419635373786e-07
1.200172767782751e-06
1.518392849186779e-06
1.881045194120911e-06
2.292252550522967e-06
2.754936547677968e-06
3.271989045022879e-06
3.846334560485617e-06
4.480736340901614e-06
5.17742942611028e-06
5.936698392925867e-06
6.753199643761172e-06
7.622635699766448e-06
8.562640311553441e-06
9.576566294659702e-06
1.066767593069694e-05
1.183906689135324e-05
1.309358774633761e-05
1.443373976152256e-05
1.586156249494273e-05
1.737850132875186e-05
1.898525699909747e-05
2.068162391017142e-05
2.241685745888605e-05
2.419018173299515e-05
2.601506709028897e-05
2.789859538210527e-05
2.984266866048831e-05
3.184665530187594e-05
3.39111321545207e-05
3.604320448513596e-05
3.826466802918986e-05
4.062472680899563e-05
4.3218526541622e-05
4.621019790234485e-05
4.985211317883571e-05
5.447600218635776e-05
6.039613681485379e-05
6.759338678331621e-05
7.496617893074964e-05
8.159000204344259e-05
8.899332273209642e-05
9.722600502920064e-05
0.0001063018766856195
0.0001161871563817675
0.0001267927919129145
0.0001379736152232486
0.0001495358600653371
0.0001612523310562613
0.0001728820807640363
0.0001841897717616772
0.00019495966713438
0.0002050005635466752
0.0002141405372363433
0.0002222133233230336
0.0002290406425323625
0.0002344161690926901
0.000238096721247746
0.0002398044619457741
0.0002392402683951795
0.0002361027785948659
0.0002300997849229907
0.0002209273748424037
0.0002081945514448526
0.0001911677191236036
0.0001701323909447521
0.0001473584456458295
0.0001245684072573574
0.000102350137447234
8.039173550211011e-05
5.245370984921872e-05
3.46673622831407e-05
2.159678749370497e-05
9.926532298047822e-06
3.701657872431908e-06
1.17596838798011e-06
3.330959174849795e-07
9.039069317594043e-08
2.873617149340835e-08
1.464984365938696e-08
1.160572912672622e-08
1.088432493542556e-08
1.076341961983469e-08
1.152160865810591e-08
1.629809946511639e-08
4.17447025134921e-08
1.762753521037022e-07
8.96697511374547e-07
4.828380552844021e-06
2.693788043459418e-05
0.0001415000166083869
0.0004963068294390488
0.001214787825739512
0.00262179680838199
0.004938044075270431
0.007866487887518675
0.007589741616892807
1.725187505889576e-13
2.03549939037939e-11
3.421081937490529e-10
2.352138897268153e-09
9.923453224039201e-09
3.061060225074388e-08
7.524806437827186e-08
1.549791473782449e-07
2.773392965691496e-07
4.447206239929472e-07
6.559762659645812e-07
9.088441252898954e-07
1.191435039999502e-06
1.508437759782009e-06
1.869761467650131e-06
2.279726222861803e-06
2.741395396764506e-06
3.257766120968222e-06
3.831885256563211e-06
4.466544874255654e-06
5.163656257872708e-06
5.922150729309658e-06
6.732779370188671e-06
7.602050682984264e-06
8.542178859607742e-06
9.556568957741026e-06
1.064854353789721e-05
1.182127133067708e-05
1.307768637906287e-05
1.442039505282987e-05
1.585156909263316e-05
1.737282369009387e-05
1.898508132855301e-05
2.068842505959278e-05
2.247292589605675e-05
2.427286977000661e-05
2.611098303601108e-05
2.800241633839336e-05
2.995444250051839e-05
3.196873150842118e-05
3.404553263111998e-05
3.61895912900045e-05
3.841852728705956e-05
4.077517159274572e-05
4.334537428727033e-05
4.628099437856983e-05
4.98220866033343e-05
5.429758498119743e-05
6.004732204472992e-05
6.712961229391446e-05
7.45813552814255e-05
8.109802397639269e-05
8.837957866417702e-05
9.648188374127433e-05
0.0001054266326407093
0.0001151891681388855
0.0001256897791274572
0.0001367914335823844
0.0001483058332304443
0.000160007554494972
0.0001716535232034468
0.0001830031270398227
0.0001938337150150619
0.0002039473596616181
0.0002131672313243357
0.0002213249722428735
0.0002282431558141483
0.0002337185369674745
0.0002375118991092901
0.0002393486617299914
0.0002389308731966253
0.0002359555966725748
0.0002301268101025634
0.000221136896135912