/*--------------------------------*- C++ -*----------------------------------*\
| =========                 |                                                 |
| \\      /  F ield         | OpenFOAM: The Open Source CFD Toolbox           |
|  \\    /   O peration     | Version:  v1812                                 |
|   \\  /    A nd           | Web:      www.OpenFOAM.com                      |
|    \\/     M anipulation  |                                                 |
\*---------------------------------------------------------------------------*/
FoamFile
{
    version     2.0;
    format      ascii;
    class       volScalarField;
    location    "1000";
    object      omega;
}
// * * * * * * * * * * * * * * * * * * * * * * * * * * * * * * * * * * * * * //

dimensions      [0 0 -1 0 0 0 0];


internalField   nonuniform List<scalar> 
11121
(
1307347.230274259
255631.0010017687
92057.21625776103
45201.48547646503
26662.18184986086
17791.60894719551
12964.44486583243
10050.13197213502
8121.346088560873
6743.143528468337
5701.372142814048
4882.127134778353
4218.244376106968
3668.315928166002
3206.100131744155
2813.772400910472
2478.421027727156
2190.219952314388
1941.437471684533
1725.841241650636
1538.330067220119
1374.688604459212
1231.409784630407
1105.556349891641
994.6608933893417
896.6457827979561
809.7509013136746
732.4789117642223
663.5499381697774
601.8640333392876
546.4700508673196
496.5397988395355
451.3466477879087
410.2480759113992
372.6719973208087
338.1071918078443
306.0987492945016
276.2501153976576
248.2324813934063
221.8053998560805
196.8458330572444
173.3761553915367
151.5710700336234
131.7132393590194
114.0765795043899
98.75738067359231
85.52157557987904
74.04436771067773
64.14450043840775
55.69281865320038
48.54622903896686
1310708.300545362
256600.890032715
92457.36515271886
45407.07479964049
26782.09957623963
17867.37012540124
13015.32823334808
10086.28905956295
8148.390632832416
6764.182358696587
5718.127485673475
4895.737373947361
4229.521660853808
3677.784374669551
3214.120707969726
2820.608976333078
2484.276188742858
2195.254744987398
1945.78285058533
1729.605047615599
1541.601707465145
1377.542446224444
1233.907909891738
1107.751093410583
996.5968864143085
898.3616538371123
811.2810137165034
733.8549848358512
664.8025938995044
603.0242965401602
547.5708050904281
497.6171725764032
452.4412567196236
411.4059667470717
373.9450119813049
339.5522702207619
307.7754014538198
278.2149385193021
250.5306273593616
224.4570282226287
199.8285932845868
176.6091256767172
154.9102035488887
134.9709193884344
117.0716423367688
101.3868759470583
87.83497819252398
76.09319790826015
65.91697567532047
57.18965471094106
49.77963137917949
43.54424604938372
1313967.195573427
257542.4317966513
92845.97992677581
45606.68046677052
26898.39397255143
17940.69462414803
13064.45629274345
10121.1331865164
8174.437761719517
6784.457947254052
5734.29235129879
4908.880549650661
4240.416661815977
3686.927022370265
3221.852169840637
2827.179836681386
2489.881155410114
2200.05110818719
1949.900440074966
1733.15228748492
1544.669555344639
1380.207216182817
1236.233625696641
1109.791691185485
998.3980237676186
899.9622965990496
812.7150535934854
735.1527631611629
665.9923593383626
604.1336175695949
548.6279446790211
498.6524146282208
453.4881399212188
412.502322514294
375.1336092448375
340.880724858354
309.294805732551
279.9764297035908
252.5789454974722
226.8200346929958
202.5025895132807
179.5423786841625
157.9919158025466
138.0385790765581
119.9495776072151
103.9533363274949
90.08903862563359
78.08484480201962
67.65733346328669
58.67406474065334
51.01488866687412
44.54663152613441
39.1286207404705
1317231.883887036
258486.6749002442
93235.70369492218
45806.55811277794
27014.44179176636
18013.45864152708
13112.88744004218
10155.29224124306
8199.909098602002
6804.308953313556
5750.185708134183
4921.888866732153
4251.288785419271
3696.130301855094
3229.700533592703
2833.900355084779
2495.64970004713
2205.010903470871
1954.171648580197
1736.837477593001
1547.856942007984
1382.972778584362
1238.642803184648
1111.900913957606
1000.255954498337
901.6110012168907
814.1912115378478
736.4888660272699
667.2179116981104
605.276352519787
549.7150536055709
499.7117807452596
454.5495411372974
413.598529102476
376.3012345797803
342.1605762275238
310.7313135134604
281.6154976341195
254.4633020687478
228.9810339430703
204.9478800292671
182.2407759251576
160.860956788219
140.9454844327483
122.736853353058
106.4878100981783
92.31217765144811
80.03985977412933
69.37994006836679
60.15663380701341
52.26025359990199
45.56705921353968
39.94356849617272
35.25282151047652
1320472.358900485
259424.8444942769
93622.63512897896
46004.31979025326
27128.40366839772
18084.03760422223
13159.09722713047
10187.31358259952
8223.427327006679
6822.444243332655
5764.610619024561
4933.675565552095
4261.178763902333
3704.569634898976
3236.975594648743
2840.208547660919
2501.137760282277
2209.794950777253
1958.347522848595
1740.486631795241
1551.04984048953
1385.770978541892
1241.100489855565
1114.066122765035
1002.171418256805
903.3149080064604
815.7179376095729
737.8696853249737
668.4817173186174
606.4504243727579
550.8258896037596
500.7859970744833
455.6148243796586
414.6845870960224
377.4406377431074
343.3892884574202
312.0885678858876
283.1424718316682
256.1998171295236
230.9593570404016
207.1829591579316
184.7174150555435
163.5211328258089
143.6829879936797
125.4092590489615
108.9528188074625
94.48454937961161
81.9540183233094
71.07599831597892
61.62666756915283
53.50482781731579
46.59540018933937
40.7721004175005
35.90287967753414
31.85620941383418
28.50668316483419
25.73904408016408
23.45045094196231
21.55121470248778
19.96448575994053
18.6253707149402
17.4798470599191
16.4836883899577
15.60146282537395
14.80555516102433
14.0751063852279
1323568.767830674
260322.2628429638
93992.75374339742
46193.18702195731
27236.76470806359
18150.56854227878
13202.05003312424
10216.51947830687
8244.412234535999
6838.253460542421
5776.876066654746
4943.457842988976
4269.223440358713
3711.326640959011
3242.733801083837
2845.165166784352
2505.436230904887
2213.545000142053
1961.635774785021
1743.383033555835
1553.611722996198
1388.045826076856
1243.128135242782
1115.880573576238
1003.802165374524
904.7880192179332
817.0570160818354
739.0966702861252
669.6175696467729
607.5157318978185
551.841431995036
501.7733147365116
456.5968241694277
415.6861842436975
378.4893747886985
344.5157899062906
313.3265698521574
284.5280018934685
257.768901874717
232.7434518744754
209.2012987886006
186.9660583808456
165.9602988083334
146.2279846004673
127.9349856091873
111.3224219359058
96.6013140517222
83.81452753314306
72.72058881696483
63.06576271561396
54.73410692106285
47.61990376393538
41.60466450279237
36.56191136950922
32.36329008860879
28.88443381682729
26.00951252216993
23.63406477792589
21.66622628894885
20.02676723566913
18.6484184805548
17.47488869988413
16.45982880089685
15.56584567121076
14.76354253966194
14.03049064903263
13.35002398604907
1326543.153734935
261185.4589918947
94349.25918911934
46375.54701351816
27341.80167187917
18215.40768952901
13244.17759398786
10245.34325920081
8265.219127389468
6853.955435853508
5789.032605255647
4953.078669831883
4277.020684752035
3717.740511737664
3248.058719738782
2849.613185308503
2509.170575829947
2216.696910108599
1964.312777442391
1745.673796103168
1555.589115161883
1389.769199655394
1244.645503813781
1117.230813050673
1005.01694502739
905.8936046023641
818.0756990378425
740.047597361637
670.517344068769
608.3792410767147
552.6829987155405
502.6078819470005
457.4409280540292
416.5586687528239
379.411911311179
345.5132198001394
314.4269564110738
285.7620979860747
259.1685220896049
234.3380063784265
211.0116232902555
188.9950079930661
168.1810387701798
148.5742052451108
130.3016124643027
113.5860651335819
98.65950963624904
85.62451973596943
74.3146720788364
64.46978158432398
55.94247367087084
48.63499793079004
42.43631073695402
37.22574628707538
32.87863620334644
29.27222544171355
26.29061928436243
23.82813759975306
21.79103283522205
20.0978988183441
18.67923318712357
17.47657918708042
16.44154334295419
15.53483063943488
14.72530369076192
13.98898486621383
13.30789321955688
12.66863915518598
1329498.397721747
262043.8478006254
94703.46236538471
46556.0449333994
27444.98151347086
18278.40719742536
13284.64568949948
10272.86033930016
8285.17666306775
6869.284145773034
5801.249939456799
4963.116346341377
4285.497570268618
3725.004932815782
3254.322810616333
2855.020908269841
2513.832779125467
2220.707751360336
1967.756681260259
1748.628605561694
1558.127498699105
1391.959594933888
1246.553079390509
1118.917540739732
1006.538612906314
907.2901307749722
819.3485549908111
741.1861910170001
671.5404857209966
609.3264960539909
553.589859004292
503.4983384773724
458.3336802052895
417.4712927307053
380.3633303984811
346.5249929939842
315.5237522387469
286.9714375162172
260.5195489387158
235.8587277886543
212.7238742792487
190.9065854840279
170.2755135121173
150.801324191546
132.5745427575681
115.7933194204382
100.6948500691847
87.42723173478551
75.90519544176023
65.87411418513635
57.15668980772677
49.66118733845917
43.28297993968128
37.90691147436461
33.41214670907992
29.67789000976604
26.58855739526507
24.03756582812681
21.92951444068785
20.18097364483616
18.72030552293051
17.48695133191996
16.43051673761395
15.50983513764718
14.69204662164011
13.95162895417936
13.26927520068575
12.63053193979934
12.02417591598798
11.4404055034483
1332372.644640335
262878.8268046349
95046.56437627088
46728.5894855883
27540.87858772478
18334.17925608354
13318.01004299238
10293.68075211085
8299.100681783313
6879.378571522672
5809.052927598525
4969.561098149152
4291.185536834601
3730.217861762488
3259.181321218022
2859.567043186365
2518.074876265762
2224.643284285174
1971.383198036996
1751.949123994631
1561.152703967155
1394.708211429388
1249.050885414971
1121.194283662231
1008.621712700522
909.1938291982459
821.0793581421483
742.7527156539111
672.9518191932193
610.6073024973944
554.7774297161462
504.625075967426
459.4263643752415
418.55327658665
381.4567345078198
347.6524887427402
316.7097164483494
288.2423298737506
261.9032947223749
237.3827252194295
214.4110865368735
192.7692130953725
172.3062921776955
152.9639813516317
134.7976104262137
117.9745853895121
102.7243911114758
89.23117270304827
77.50162142981425
67.29103933029589
58.38822678483263
50.70792880593779
44.15207736536854
38.61111380619556
33.96822401729735
30.10484673120056
26.90600127411941
24.26445393933373
22.08333692449637
20.27731975411788
18.77270359732913
17.50687245028877
16.427459267233
15.49144404591165
14.66425364624747
13.91881981302697
13.23449564444299
12.59573775083598
11.99052007577704
11.40854266442655
10.83942290208419
10.27126139233366
1335022.546904965
263649.1295216568
95362.6110503185
46886.51877360341
27627.19328607443
18382.56457817553
13344.94161819206
10308.48129152153
8307.213229798341
6883.815011827945
5811.348079643281
4970.716348477466
4291.902371601071
3730.853973277553
3259.911341972505
2860.464409551522
2519.158058272954
2225.90116997164
1972.788894496101
1753.46850314508
1562.749614140302
1396.347588126867
1250.700665062129
1122.826552490519
1010.213744651975
910.7306434007264
822.5510589804304
744.1519879436344
674.2750230605161
611.8547171385868
555.9570218955307
505.7520424628558
460.5187131004697
419.6302870783075
382.5384299428781
348.7598020500595
317.8649369969295
289.4694036272259
263.2275473245906
238.829537362992
216.0029702034462
194.5207024305172
174.2163335849358
155.0066091737955
136.9142815761301
120.0753151059386
104.7061738944462
91.01418140027762
79.06683781802488
68.6722894873876
59.60255041167649
51.74938010013479
45.02358021252488
39.32252059778828
34.53425447135729
30.54305409012518
27.23499423858446
24.50253246186527
22.24758389726959
20.38309293680241
18.83342140655924
17.53398202107584
16.43049908350106
15.47814872181318
14.64068143321986
13.88950574753216
13.20264162062167
12.56344646559785
11.95906855276828
11.37867804812514
10.81165531190795
10.24612130260631
1337469.710209081
264361.4888571557
95655.6205158346
47033.73963247739
27708.42737851199
18428.72486789628
13371.03283813691
10322.95559549098
8315.012985635851
6887.695643155257
5812.738420887081
4970.58059212347
4290.951570963697
3729.500285132046
3258.408431672112
2858.974194302039
2517.786578298393
2224.717128365164
1971.833297973091
1752.761509656661
1562.296141632663
1396.142382623208
1250.73259863234
1123.080073593497
1010.662796349937
911.3186580165951
823.2259000591725
744.8860569759648
675.0451718254291
612.6410871653171
556.7552979509713
506.567878078135
461.3551814784273
420.4917697209914
383.4324766447913
349.6976255431476
318.8612630278978
290.542061289051
264.3967900863209
240.1167639773947
217.4282806057675
196.0986120055049
175.9491588877366
156.8759566305615
138.8732285164546
122.0469531823333
106.5954717511725
92.7351726139925
80.57689961429634
70.00174148744966
60.77836427644297
52.76535385407784
45.88029207725121
40.02709637961423
35.09898653638688
30.9835677890505
27.56846387921597
24.74623536175965
22.41789530074275
20.4948928518054
18.89981616257184
17.56622862278004
16.4380396652468
15.46869619228729
14.62033105505611
13.86287182359632
13.17302944581307
12.53306776155706
11.92929844118445
11.35033880925414
10.78530269293899
10.22229992912139
1339804.723594717
265041.9499935926
95935.91172599069
47175.01859780443
27786.93815830635
18474.00358337547
13397.3949327756
10338.43907168961
8324.290463290356
6893.344532935085
5816.076898754163
4972.303788692762
4291.560004422034
3729.366619114958
3257.766685751932
2857.987447998284
2516.581144564075
2223.398088286065
1970.490995578758
1751.475583828026
1561.138592194669
1395.179112268613
1250.01999408767
1122.648575572058
1010.473535938103
911.3043919013493
823.3477838130322
745.1180861676906
675.3622983178217
613.0182469830839
557.1813125825881
507.0539466399522
461.9126643896249
421.1211236980081
384.131728151945
350.4672812742102
319.7063705579044
291.4724864520776
265.4264955951816
241.2623746536913
218.7067401686922
197.5234158762369
177.5246411258816
158.5896929552258
140.6881576885491
123.897368140964
108.3933628751926
94.39236724215158
82.04103420254772
71.29358215366148
61.92319792447886
53.75909226768511
46.72325959351598
40.72494625700008
35.66218886366357
31.4260651983362
27.90608200338202
24.99525793012231
22.59400340484742
20.61249835536302
18.97171996489482
17.60349993528422
16.45002153502294
15.46307244010827
14.60322335863964
13.83896190776825
13.14571492035709
12.5046605904547
11.90126620560348
11.3235764056002
10.76041144847309
10.19984046037493
1342072.239687895
265703.0870312106
96207.85565359148
47311.40687807689
27861.95034409206
18516.53995239394
13421.61393164154
10352.38031886432
8332.647201050073
6898.679450327517
5819.655293115815
4974.692960014077
4293.122880006189
3730.36873398216
3258.341387999336
2858.211147883449
2516.511750507506
2223.092721900626
1970.013189401477
1750.898368553467
1560.544349490135
1394.654207096518
1249.638197967481
1122.43165799523
1010.384898187609
911.3127847350502
823.443495097282
745.2901815529407
675.5981984964079
613.3034439366432
557.4992232803744
507.4095753601981
462.3336763688147
421.6265212941085
384.7257113047172
351.1487713051219
320.4751190403585
292.3320961809851
266.3851760204466
242.3321526278996
219.9014567495226
198.8553988624992
178.9996703580392
160.2000470505263
142.4045853421226
125.6632182383734
110.1273981858537
96.00776341410854
83.48100564839258
72.56953731629181
63.05561832613644
54.74503679300992
47.563274271692
41.42408914414932
36.2298825378934
31.87512414503676
28.25135587094466
25.25229409427762
22.77797901197868
20.73750612910394
19.05037438251256
17.64677610255309
16.46723462481695
15.46192892243281
14.58990715412375
13.81824601955934
13.12110501513042
12.47857983932875
11.8752833751245
11.2986670689484
10.73723061867323
10.17897317627498
1344253.941154145
266339.2927348869
96468.70759944012
47440.86559148731
27931.46190900051
18554.13434546179
13441.24731535286
10362.14269803422
8337.337769928889
6900.931866130911
5820.749915820853
4975.167712758887
4293.306355599328
3730.484771225354
3258.459889416381
2858.33479352244
2516.622203505117
2223.173636905852
1970.060566125494
1750.924760199533
1560.57801284725
1394.732143365814
1249.789417165557
1122.643612436642
1010.636761876855
911.6015971312531
823.766205245775
745.6431466682045
675.9767797414922
613.7017524623578
557.9100364883111
507.8245468607814
462.7729315668636
422.1253621139637
385.3021379313664
351.8100452752799
321.2239338114023
293.1711789825723
267.3199190352211
243.3713526158033
221.0563691063072
200.1371534865886
180.4148366100607
161.7441314217442
144.0540870731086
127.3692082760635
111.8169820194173
97.60044152743212
84.91837182893232
73.84072295000355
64.17954486439946
55.72960772108934
48.40656295503835
42.12970000318575
36.80612078129685
32.33385889286489
28.6066718899586
25.51917605975255
22.97123234389647
20.87100575711301
19.13662773093061
17.69672637142406
16.49021660785083
15.46570641181037
14.58075035607351
13.80103519673718
13.09946448212304
12.4550515499538
11.85154362171119
11.27577823592333
10.71590757597343
10.15982948666789
9.59447933514511
9.007454407307787
8.39269783197701
7.782522901955043
7.19580461617166
6.569341360428034
5.854181008292651
5.077274595846604
4.298317544746528
3.559362515017031
2.948160594368789
2.532604794852511
2.285146077857491
2.146183318419383
2.061081231428999
1.998673555363157
1.947007458508437
1.901637980083464
1.86102574482203
1.82463948307759
1346273.858289796
266928.4114882722
96709.5674389046
47559.22544992233
27993.44461011762
18585.78175300408
13455.68800025808
10367.1356825227
8337.577950725703
6899.039331693723
5818.014264344425
4972.130616003124
4290.328477153481
3727.833211598798
3256.222789259607
2856.512893398181
2515.178284790051
2222.058287668878
1969.224750058205
1750.326058950279
1560.182503600856
1394.512862459663
1249.721543997637
1122.695598344353
1010.780626019965
911.8194153188342
824.0434529278774
745.9678792546403
676.3390074135538
614.092998589379
558.3230983325453
508.2535080522919
463.2184747474629
422.605647947043
385.8412491542283
352.4232560941104
321.9201307568694
293.9561285332936
268.1991989398294
244.3521751909368
222.1478605655723
201.3488132004498
181.7529232376517
163.2058749686566
145.6204302213171
128.9987244563655
113.4461040109142
99.1551075073957
86.33589085087546
75.09178791498249
65.28312428798353
56.70232552054236
49.24458113768325
42.83488123364749
37.38531210879854
32.79773996279162
28.96838816467444
25.79300638502792
23.17148202028586
21.01121635493487
19.22909884650943
17.75228410050102
16.51814467481437
15.47376786880197
14.57525446824802
13.78693178908417
13.08046740309188
12.43380008741254
11.82980668095338
11.25469520619003
10.69624706406713
10.1422330105556
9.579647776842057
8.996156792702095
8.385585850320938
7.777599908747328
7.194104233549334
6.574729708316529
5.868155405212586
5.097671340569168
4.322281530892714
3.583665527300213
2.967903488292811
2.545902597373577
2.293443606691425
2.151426160136074
2.064729038556248
2.001484343220429
1.949265922014599
1.903453313907344
1.862444740468831
1.825689454350691
1.79296137539314
1.764088019741725
1.738900835794755
1.717175877908124
1.698809377838713
1.683619735145891
1.672532628559525
1.670029020047948
1.706057554889497
1.971487141613814
3.197523011523911
6.00597700494894
9.585114656082325
13.50721212663209
20.06708401767644
42.32417923076748
1348095.955634491
267460.2544058198
96927.1327779181
47666.125182729
28049.22629566865
18613.83164020399
13467.79268435924
10370.30517021476
8336.103325329394
6895.350107185684
5813.330151281658
4966.983326709571
4285.111678266145
3722.8733348562
3251.673114307716
2852.436439127463
2511.591150113894
2218.952303344528
1966.579327855757
1748.115725049667
1558.3813031626
1393.094593479885
1248.65181856985
1121.907932111661
1010.212657113362
911.4351253127303
823.8125895364401
745.864808774124
676.3418908232679
614.1831719443078
558.4845748447691
508.4725371461734
463.4830880589957
422.9214962166953
386.2257786652059
352.8882558719749
322.4735683818219
294.6038516530346
268.9465144974516
245.2050904803704
223.1135375151488
202.434689458188
182.9640133860023
164.5400543713599
147.0622437094755
130.5136575190358
114.9789559291056
100.6366803682748
87.69992578452235
76.29952860749155
66.35004496033436
57.64659459332337
50.06238080096625
43.52693483770155
37.95698682821201
33.25828125186857
29.32970903316505
26.06839794877344
23.37449535542212
21.15483740512426
19.32522944902147
17.81147417201795
16.5494957358238
15.48493543485288
14.57250096373525
13.77520867868479
13.06352568115213
12.41433728220153
11.80965619023858
11.23505380129702
10.67792354397421
10.1258869155397
9.565974124903935
8.985910215081663
8.379429715514393
7.773654658581647
7.192897632143342
6.580249591643039
5.882117303359767
5.118036600970486
4.346226173294324
3.608075435493309
2.987931828985982
2.559473013795813
2.301898543071152
2.156726684277842
2.06837668330704
2.004270265395115
1.951492741152086
1.905237495266176
1.863836029046093
1.826716531776474
1.793646443789422
1.764453767380007
1.738968446052186
1.716969673530816
1.698348409640036
1.682927694448788
1.671615415226507
1.668858383946201
1.704570362517231
1.971878349758615
3.210005217524151
6.027464885936356
9.598707788473734
13.52414305517958
20.11070556897084
42.42121003617532
1349823.790092743
267965.1521536491
97134.16551794363
47768.42020435075
28103.25121619584
18641.71534593744
13480.6459421354
10374.71129177692
8336.072263099566
6893.126336060529
5810.013229219681
4963.032519812447
4280.85356145653
3718.581219037649
3247.485897208405
2848.431437227266
2507.81964159374
2215.456465443687
1963.400146791654
1745.296918476199
1555.966983672299
1391.112491533326
1247.065322999103
1120.635035064988
1009.195699779909
910.6412451454171
823.2130143400732
745.433774430971
676.0558940896613
614.0203838599217
558.4242655386576
508.4943654168902
463.5660705722795
423.0658307954755
386.4524117327019
353.2117978102428
322.8988624404906
295.1325478546797
269.5805176280326
245.9479071611518
223.9703250683717
203.4112337862306
184.064424614387
165.7628906240991
148.3951749350878
131.9277798801756
116.4255219681669
102.0508428593052
89.0160186485197
77.47652988099756
67.39416037613871
58.57103609923399
50.86536938590438
44.20942343214711
38.52363743226958
33.71730506302978
29.69199561413663
26.34637444397653
23.5810449617411
21.30245722554261
19.42547656634956
17.8746634878011
16.58457696657323
15.49947736477521
14.57273186397239
13.76608810184446
13.0488441029196
12.39685077691543
11.79126264196113
11.21700817710366
10.66107699116214
10.1109202201353
9.55358087616198
8.976834121446425
8.374340088571754
7.770731228264032
7.192390716612072
6.58607667787319
5.896166017375472
5.138455312072436
4.370221527979892
3.632638957656197
3.008277111725865
2.57334148207167
2.310528243834717
2.16209494044929
2.072029887459369
2.007034850344764
1.953690407442303
1.906992481523686
1.865201212439698
1.827722020741242
1.794315003214695
1.764808342921629
1.739030014342938
1.716762362133405
1.697890621726153
1.682242594467448
1.670708143355924
1.66769981642145
1.703093307521822
1.972252356761518
3.22223386084456
6.048293347590289
9.612023250237218
13.54159490187513
20.1575284300032
42.51735598727691
1351556.500888613
268471.4783977109
97341.08828168345
47869.58723316876
28155.46142574953
18667.46502894556
13491.43810046007
10377.46984270939
8335.023907395123
6890.588887210135
5807.049633450769
4960.008642927826
4277.959605826199
3715.934774471969
3245.083440366922
2846.231507170643
2505.783500696653
2213.565857523381
1961.662725502162
1743.74460448412
1554.645155861597
1390.052632697042
1246.226307333888
1119.964340568481
1008.675891391549
910.2573519377228
822.9515546309644
745.2820411581656
676.0014293133477
614.0505752395662
558.5260145464891
508.6537924588463
463.7682508925622
423.2946819999061
386.7260797761713
353.5659487749385
323.3483761687722
295.6816291504025
270.2300052130224
246.6993157118206
224.8271873249637
204.3784938996105
185.1463233590505
166.9594055760041
149.6970246700218
133.3106708578772
117.8460614448378
103.4489393719675
90.32877729387616
78.66181056131659
68.45003046842122
59.50571787033974
51.67817373429249
44.90204223538951
39.10088166974829
34.1871455541988
30.06494693841089
26.63452185290419
23.79703178077938
21.45864727780813
19.53337701709866
17.94459543492843
16.62553176230169
15.51908856156527
14.57730922853674
13.76068526418866
13.03735346544019
12.38213164916472
11.77530954271172
11.20115825858615
10.64624293519389
10.09782048094277
9.542922627601111
8.969363949331226
8.370801394005396
7.769114436362931
7.192878729668237
6.592545061235031
5.91063448506272
5.159248430438903
4.394558319449222
3.657598587697652
3.029124075941525
2.587632073458164
2.319404811495685
2.167568934816544
2.075709373463091
2.009791122168803
1.955868314138684
1.908725628806034
1.866546226792359
1.828710713828812
1.794970871691235
1.765154718912329
1.739087793084454
1.716555570040202
1.697437137904833
1.681565117242561
1.669811150384433
1.666553322233438
1.70162587057162
1.972606014781407
3.234203457098126
6.068475733451058
9.625071994888312
13.55979759185254
20.21069299713571
42.61192476562356
1353191.167688295
268948.5929409993
97534.33275545225
47961.42531322454
28199.53831019269
18685.3490624086
13494.53258295451
10372.91425486
8327.313045029608
6882.233281392144
5799.198455843393
4953.025447243604
4272.020427648497
3711.122329829971
3241.307523476696
2843.335635578595
2503.600276315698
2211.943709381585
1960.475887272757
1742.894172222535
1554.055161148763
1389.665823942175
1246.006377501601
1119.884036192219
1008.709137336079
910.3832265362198
823.1532418222465
745.5458688623492
676.3160206291396
614.4061343029286
558.9137755006603
509.0656725106966
464.1967829536196
423.7333670905483
387.1793169940548
354.0556437887697
323.8989790307953
296.308505473351
270.94146195107
247.5001723489123
225.7216791234208
205.3714010918058
186.242058743915
168.1591437490584
150.9940980034813
134.6849570022356
119.2594749088739
104.846156501964
91.64792244611593
79.85631749768673
69.51756528857598
60.45471587171662
52.50567470019175
45.60908717637345
39.69210863072215
34.67037957905053
30.45051408037559
26.93432803706339
24.02359921626874
21.62429111459122
19.6496169558012
18.02180668125733
16.67278453826031
15.54410974454768
14.58651133671056
13.7592312964649
13.02924847848017
12.37034573591795
11.76193942296951
11.187627766794
10.63353030484434
10.08668559464374
9.534090103301866
8.963584478169007
8.36880672312533
7.768969321694999
7.19451867056519
6.599736152046431
5.925587266610025
5.18046799318076
4.419279349756994
3.682981349517736
3.050492725248477
2.602365429678625
2.328544005538267
2.173157834498154
2.079419785186948
2.012541414741567
1.958027837828188
1.910437935781071
1.867871882303789
1.829683275761842
1.795614572099294
1.765493267773474
1.739142010302536
1.716349370238269
1.696987912613068
1.680895089205543
1.668924203649797
1.665418727716677
1.70016853672208
1.972942985213433
3.24593417370808
6.088069294823225
9.63789608003143
13.57818902028661
20.26069297852746
42.70607097625476
1354565.215019494
269349.3986696707
97695.73164989002
48036.52351556005
28233.21940376071
18695.70238121391
13491.31134923167
10362.44387403886
8313.739634373729
6867.979562942118
5785.447624376568
4940.20941883073
4260.454748678649
3701.055197380326
3232.766164620393
2836.235751662182
2497.803460219863
2207.288868113691
1956.79596920243
1740.025986229647
1551.846475707026
1387.984139352345
1244.755136563499
1118.989275396089
1008.104593747801
910.0135783513889
822.972478675979
745.5159232392617
676.405596221404
614.5897072709364
559.1707765469649
509.3798833095984
464.5560086363486
424.129475111003
387.6087823620047
354.5222630399223
324.4144323967013
296.8872431978691
271.5958474342858
248.2391549765731
226.551651947233
206.2974456445742
187.2681334057429
169.2864216078028
152.2172928844374
135.9871847191913
120.6073844299046
106.1889294074783
92.92530078056606
81.0192496908487
70.5580920430079
61.38285256818108
53.32061021218608
46.30902241820927
40.28007647760524
35.15316384990488
30.83764514877609
27.23705618114041
24.25391293401197
21.79409130579842
19.77011798707665
18.10316949274565
16.72393764148126
15.57269594360025
14.59890585548987
13.76059796045885
13.0236226012937
12.36074708164003
11.75052259934807
11.17587158855146
10.62245571716191
10.07707688330603
9.526676717154899
8.95911893034652
8.367973387930759
7.769961675477129
7.197033411860534
6.607386120998329
5.940733300704053
5.201805561346149
4.444089185037263
3.708514329585705
3.072165401820012
2.617406906280145
2.337874900668926
2.178826179165761
2.083141557404058
2.015272612085138
1.960159055956483
1.912121534231691
1.869171859190679
1.83063462573726
1.796242029703066
1.765820722403115
1.739190047538596
1.716141640688095
1.696541236345455
1.68023110869302
1.668046240325908
1.664295569246037
1.698723180227962
1.973277035742935
3.257483962246314
6.107191395801753
9.650591857176542
13.59679496326634
20.30900189590263
42.79966671573792
1355749.614113595
269695.4237829762
97835.73549325127
48102.41685807208
28263.48782528551
18705.67616852683
13489.16552938013
10353.48514964241
8301.482775159968
6854.506879320852
5771.798542947136
4926.790097544136
4247.6208362753
3689.144391652842
3221.932889395242
2826.538262131694
2489.245259561317
2199.841322825249
1950.412094526874
1734.650108045963
1547.416982841478
1384.419442739329
1241.903138222713
1116.706058503853
1006.302615342788
908.6178779181868
821.9183917837584
744.7475358878354
675.8746517774877
614.2547715659116
558.9965394717931
509.3365063924003
464.6184290769259
424.2765302693188
387.8218896148092
354.7993618167127
324.7646112746952
297.3162334281703
272.1091766370875
248.8425400294442
227.2504853433777
207.0963829639715
188.1706072389156
170.2932889041928
153.3238957704452
137.178769667976