/*--------------------------------*- C++ -*----------------------------------*\
| =========                 |                                                 |
| \\      /  F ield         | OpenFOAM: The Open Source CFD Toolbox           |
|  \\    /   O peration     | Version:  v1812                                 |
|   \\  /    A nd           | Web:      www.OpenFOAM.com                      |
|    \\/     M anipulation  |                                                 |
\*---------------------------------------------------------------------------*/
FoamFile
{
    version     2.0;
    format      ascii;
    class       volScalarField;
    location    "1000";
    object      p;
}
// * * * * * * * * * * * * * * * * * * * * * * * * * * * * * * * * * * * * * //

dimensions      [0 2 -2 0 0 0 0];


internalField   nonuniform List<scalar> 
11121
(
-0.3628214175898067
-0.3628203381149228
-0.3628191867111096
-0.3628179831738922
-0.3628166272504199
-0.3628150367637215
-0.3628131399432523
-0.3628108608778206
-0.3628081201793527
-0.3628048380044215
-0.3628009345978277
-0.3627963257442456
-0.3627909207766495
-0.3627846203255071
-0.3627773120773024
-0.362768871416991
-0.3627591601393464
-0.3627480243860867
-0.362735292488434
-0.3627207727581812
-0.3627042510868895
-0.3626854882710007
-0.3626642170860733
-0.3626401389602796
-0.3626129203754684
-0.362582188721903
-0.3625475278183069
-0.3625084727642769
-0.3624645043445432
-0.3624150427655462
-0.3623594407748619
-0.3622969761114495
-0.3622268434071125
-0.3621481455466878
-0.3620598847240535
-0.3619609537105729
-0.3618501279108821
-0.3617260595834583
-0.3615872758759334
-0.3614321829256918
-0.3612590781937044
-0.3610661725835454
-0.3608516194853298
-0.360613522694847
-0.3603498233672345
-0.3600579392604301
-0.359734536272857
-0.3593768111631131
-0.3589824116072262
-0.3585481750824057
-0.3580705098469239
-0.36639266607193
-0.3663916225926606
-0.3663905080583681
-0.3663893402262218
-0.3663880207848506
-0.3663864686356629
-0.3663846122085951
-0.3663823759912133
-0.366379680565687
-0.3663764462964796
-0.366372593396933
-0.3663680378818056
-0.3663626894984899
-0.3663564490657938
-0.3663492044829565
-0.3663408313083007
-0.3663311916054783
-0.3663201318890708
-0.3663074807973146
-0.3662930471318975
-0.3662766172843798
-0.3662579527195202
-0.3662367869118138
-0.3662128222212123
-0.3661857261623325
-0.366155127447907
-0.3661206113473633
-0.3660817147741918
-0.3660379205920169
-0.3659886513945923
-0.3659332626381263
-0.3658710350757849
-0.3658011664932511
-0.365722762907528
-0.3656348292921327
-0.3655362601764308
-0.3654258308003655
-0.3653021895841262
-0.3651638535557334
-0.3650092085991913
-0.3648365176519719
-0.3646439409455751
-0.3644295697477133
-0.3641914518981665
-0.363927517890048
-0.3636352685824225
-0.3633114575621158
-0.3629530739091663
-0.3625575990146254
-0.3621219622849547
-0.3616425742976975
-0.3611155168393294
-0.3696446034477869
-0.3696435959033131
-0.369642517802454
-0.3696413849470547
-0.3696401008160614
-0.3696385849764424
-0.3696367660635814
-0.3696345682544768
-0.3696319121612793
-0.3696287180079068
-0.3696249060741273
-0.3696203924592312
-0.3696150872945457
-0.3696088914640383
-0.3696016928937753
-0.369593367233207
-0.369583776646112
-0.3695727677038704
-0.3695601692656604
-0.3695457902004249
-0.3695294170863063
-0.3695108115237584
-0.3694897072601142
-0.3694658069373661
-0.3694387785119405
-0.3694082512039417
-0.3693738110903452
-0.3693349960127413
-0.369291290073927
-0.3692421174099033
-0.3691868353259137
-0.3691247267107801
-0.3690549917847145
-0.3689767390993206
-0.3688889760158684
-0.3687905988601909
-0.3686803831549832
-0.3685569748209701
-0.3684188836241019
-0.3682644810151257
-0.3680920052623182
-0.3678995768866742
-0.3676852246190975
-0.3674469099795631
-0.367182503908406
-0.3668896213042431
-0.3665653178349321
-0.3662062651617283
-0.3658095616020233
-0.3653723404907848
-0.3648910468043194
-0.3643617333182715
-0.3637801165099941
-0.3726840080977544
-0.3726830567699187
-0.3726820351395811
-0.3726809553458404
-0.372679722967117
-0.3726782580893132
-0.3726764882336477
-0.3726743366767125
-0.3726717227080556
-0.3726685654886663
-0.372664784559834
-0.372660295453943
-0.3726550077576548
-0.3726488216806315
-0.3726416240412858
-0.372633289390449
-0.3726236788970229
-0.3726126379252475
-0.3725999940410841
-0.3725855546341429
-0.3725691046378399
-0.372550403773952
-0.3725291836567036
-0.3725051445471535
-0.3724779517283469
-0.3724472314976931
-0.3724125666656348
-0.3723734915796328
-0.372329486552062
-0.3722799716179311
-0.3722242997260947
-0.3721617490697817
-0.3720915147488001
-0.3720126996625206
-0.3719243047369877
-0.3718252186363675
-0.3717142074079311
-0.3715899046676616
-0.3714508035773316
-0.3712952522949317
-0.3711214551676309
-0.3709274820275245
-0.3707112881803683
-0.3704707451372343
-0.3702036613796424
-0.3699077035832704
-0.3695800788655495
-0.3692172541937399
-0.3688161195367514
-0.3683739208153022
-0.3678870952755223
-0.3673516682708862
-0.3667633473749307
-0.3661174669390434
-0.375310717820591
-0.375309863414698
-0.3753089403647295
-0.3753079551439981
-0.3753068179880698
-0.3753054510244071
-0.3753037821456198
-0.375301734264318
-0.3752992266454226
-0.3752961784181653
-0.375292509086919
-0.375288134376448
-0.3752829643416838
-0.3752768996539081
-0.3752698272105485
-0.3752616218899709
-0.3752521451924513
-0.3752412430332437
-0.3752287435309334
-0.3752144547844046
-0.3751981624394438
-0.3751796270445835
-0.3751585810671543
-0.3751347256761872
-0.3751077270571609
-0.3750772124250083
-0.3750427655127668
-0.3750039215471152
-0.3749601617130296
-0.374910906946376
-0.3748555110596279
-0.3747932531462229
-0.3747233291820494
-0.3746448428277152
-0.3745567954598938
-0.3744580755912194
-0.3743474479269291
-0.3742235426461383
-0.3740848457440519
-0.3739296919065788
-0.3737562619733359
-0.3735625882859545
-0.3733465725398528
-0.3731060187534437
-0.3728386636390096
-0.3725421250004152
-0.3722136403730412
-0.3718497715323147
-0.3714472304392876
-0.3710030693419696
-0.3705137868566724
-0.369975389449205
-0.3693835437043513
-0.3687335506832305
-0.3680202875736245
-0.3672381601680645
-0.3663810615557528
-0.3654423310873434
-0.3644147113279815
-0.363290301185875
-0.3620605035048152
-0.3607159662989166
-0.3592465180944723
-0.3576410990830389
-0.3558876906107803
-0.3539732457238464
-0.3775306287665667
-0.3775298441648799
-0.3775289929348867
-0.3775280777767762
-0.3775270129332057
-0.3775257230760071
-0.3775241373887764
-0.3775221800458363
-0.3775197714187652
-0.377516831508078
-0.3775132806306196
-0.3775090352495641
-0.377504006486628
-0.3774980960776562
-0.377491192030611
-0.377483170275791
-0.3774738935863616
-0.3774632092701503
-0.3774509469821514
-0.3774369166016138
-0.3774209057570606
-0.3774026772300111
-0.377381966010928
-0.3773584760146582
-0.3773318764588049
-0.3773017977958715
-0.377267827276883
-0.3772295040834567
-0.3771863137545006
-0.377137681905032
-0.37708296714301
-0.377021453363892
-0.3769523413771927
-0.3768747397471816
-0.3767876548161516
-0.37668997987623
-0.3765804837920023
-0.3764577994302966
-0.376320412695986
-0.3761666535118997
-0.3759946909197077
-0.375802535422134
-0.3755880518260445
-0.3753489830012682
-0.3750829743708091
-0.3747875615934399
-0.3744600466940879
-0.3740972540644655
-0.3736956168210631
-0.3732518276953014
-0.3727625323431044
-0.3722237210003591
-0.3716309961678905
-0.3709796024266529
-0.3702643703686192
-0.3694796629804118
-0.3686193322936604
-0.367676678427484
-0.3666444073778969
-0.3655145858574951
-0.364278591601851
-0.3629270581642693
-0.3614498143302162
-0.3598358194810264
-0.3580730970830303
-0.3561486687968584
-0.3540484913278101
-0.3795725720032392
-0.3795717944551131
-0.3795709494401962
-0.3795700387738186
-0.3795689763300507
-0.37956768588526
-0.3795660955431904
-0.3795641280896028
-0.3795617024977792
-0.3795587374697254
-0.37955515195328
-0.3795508615814593
-0.3795457764815297
-0.3795397969565628
-0.3795328091685227
-0.3795246872086336
-0.3795152917459347
-0.3795044677845942
-0.3794920423790308
-0.3794778224076237
-0.3794615921825913
-0.3794431107194999
-0.3794221087434433
-0.3793982854861023
-0.379371305939056
-0.3793407992084187
-0.3793063552901574
-0.379267508669713
-0.3792237272288761
-0.3791744206775347
-0.37911894264895
-0.3790565767792263
-0.3789865203101593
-0.3789078749912374
-0.3788196385595616
-0.3787206947436633
-0.3786098020455352
-0.3784855819809331
-0.3783465075173141
-0.3781908930313743
-0.3780168876552997
-0.3778224743211356
-0.3776054766359475
-0.3773635751153628
-0.3770943324813291
-0.3767952161804924
-0.3764635587831188
-0.3760963377724285
-0.3756898998565799
-0.375240792315549
-0.3747457064310031
-0.3742006072060354
-0.3736010804271032
-0.37294237101734
-0.3722193206487456
-0.3714263096915277
-0.370557211652963
-0.3696053502298326
-0.3685634552968884
-0.3674236166515094
-0.3661772342147765
-0.3648149637198272
-0.3633266579526912
-0.3617013047666969
-0.3599269639544697
-0.3579907053745901
-0.3558785504719196
-0.3535754185941021
-0.38157159090116
-0.3815709245834917
-0.3815701892474153
-0.3815693786654971
-0.3815684094163903
-0.3815672040000722
-0.3815656861931422
-0.3815637737863544
-0.3815613808247105
-0.3815584216402094
-0.3815548116853551
-0.3815504636063981
-0.3815452849897461
-0.3815391724418149
-0.3815320071945015
-0.3815236584205653
-0.3815139817138035
-0.3815028164442832
-0.3814899833295543
-0.3814752821270277
-0.3814584890731289
-0.3814393540255349
-0.3814175974709019
-0.3813929076833358
-0.3813649389312836
-0.3813333103912152
-0.3812975981396813
-0.3812573165597487
-0.3812119121901092
-0.3811607700600522
-0.3811032189826918
-0.3810385221042257
-0.3809658544579176
-0.3808842922129025
-0.3807928041998186
-0.3806902420518658
-0.380575329019904
-0.3804466481411325
-0.3803026304113898
-0.3801415438481113
-0.3799614848810026
-0.379760374039106
-0.3795359589580443
-0.3792858296534209
-0.3790074518842751
-0.3786982090649041
-0.378355381548978
-0.3779759226511241
-0.3775561607693144
-0.3770926943887961
-0.3765822335403862
-0.3760206990243958
-0.3754036979810628
-0.3747265346108101
-0.3739841335251552
-0.3731709807599364
-0.3722810777239882
-0.3713078954806979
-0.3702443269363793
-0.3690826364955473
-0.3678144059237784
-0.3664304753220233
-0.3649208791782645
-0.3632747788631649
-0.3614803940783038
-0.3595249364334475
-0.3573945483522544
-0.3550742499328445
-0.3525478957362107
-0.3497981437632781
-0.3828234111748612
-0.3828230252463637
-0.3828225752692085
-0.3828220389131694
-0.3828213464526004
-0.3828204266439456
-0.3828192040996372
-0.3828175964380829
-0.3828155177698494
-0.3828128828642027
-0.3828096078842354
-0.3828056064205241
-0.3828007882215084
-0.3827950520393981
-0.3827882803311329
-0.3827803439707634
-0.3827711009007094
-0.3827603932387861
-0.3827480448705441
-0.3827338591317329
-0.3827176162582786
-0.3826990706119542
-0.3826779477543919
-0.3826539415874272
-0.3826267115709441
-0.3825958782259709
-0.3825610137272533
-0.3825216354320717
-0.3824772057086516
-0.3824271250100985
-0.3823707272867484
-0.3823072743911682
-0.3822359420257625
-0.3821558097944411
-0.3820658513054409
-0.3819649228161316
-0.3818517509485794
-0.3817249198995074
-0.3815828584576492
-0.3814238273554584
-0.3812459079836275
-0.3810469944829464
-0.3808247929275959
-0.3805768335040753
-0.3803005009716436
-0.3799930748969859
-0.3796517284084644
-0.3792733890579206
-0.3788545124275893
-0.3783914611619262
-0.3778806561375092
-0.377318103766564
-0.3766993661763642
-0.3760196634560667
-0.3752738449450437
-0.3744563359222015
-0.3735610892219794
-0.3725815396595218
-0.371510558275874
-0.3703404051832341
-0.369062679735647
-0.3676682666780898
-0.3661472775419236
-0.3644889875983192
-0.3626817697608002
-0.3607130277228618
-0.3585691311425052
-0.3562353559044139
-0.3536958326846543
-0.3509335080207786
-0.347930125267915
-0.3446662403974626
-0.3832650780918419
-0.3832648697164515
-0.3832646041408971
-0.3832642504550409
-0.3832637504424476
-0.383263040878029
-0.3832620517794388
-0.3832607059896918
-0.3832589227680617
-0.3832566214723051
-0.3832537222439398
-0.3832501423408167
-0.3832457960438534
-0.3832405875562317
-0.3832344047684471
-0.3832271244264854
-0.3832186110097701
-0.3832087140231411
-0.3831972657147786
-0.3831840788807608
-0.3831689444282361
-0.3831516286367357
-0.3831318702640602
-0.3831093781198747
-0.3830838294875729
-0.3830548659621146
-0.3830220766894769
-0.3829849943337193
-0.3829431040284542
-0.3828958362664886
-0.3828425511193147
-0.3827825339053735
-0.3827149918227333
-0.3826390368016165
-0.3825536750331101
-0.3824577968511636
-0.3823501649244771
-0.3822294009627317
-0.3820939715810173
-0.3819421739982516
-0.3817721226363973
-0.3815817385104904
-0.3813687444763024
-0.3811306702127439
-0.3808648702904758
-0.3805685558563693
-0.3802388296055557
-0.3798726709349642
-0.3794667406683109
-0.3790170356167094
-0.3785196641829112
-0.3779708279044643
-0.3773659766672452
-0.3767001820363019
-0.3759681532720002
-0.3751641718270329
-0.3742820347604371
-0.3733150089944693
-0.3722557874923213
-0.3710964451667887
-0.3698283942374493
-0.3684423384237188
-0.366928225376026
-0.3652751972994255
-0.3634715403165753
-0.3615046334971705
-0.3593608986045818
-0.3570257516231443
-0.3544835575160714
-0.3517175913021984
-0.3487100128003063
-0.3454418713868948
-0.3836208489929199
-0.3836206459078029
-0.3836203872035087
-0.3836200420410847
-0.3836195535529564
-0.38361886035863
-0.3836178946611262
-0.3836165816374206
-0.3836148426684732
-0.3836125987825583
-0.3836097715802201
-0.3836062806448505
-0.3836020403302242
-0.3835969541515256
-0.3835909119625507
-0.3835837919707208
-0.383575459541959
-0.3835657649120941
-0.3835545410430534
-0.3835416014121431
-0.3835267375016609
-0.3835097161752699
-0.3834902780599147
-0.383468138861601
-0.3834429905718597
-0.383414482162626
-0.3833821971583308
-0.3833456678962341
-0.3833043858632878
-0.3832577859657892
-0.3832052271699212
-0.3831459936497338
-0.3830793047319371
-0.3830042925422485
-0.3829199775492039
-0.3828252592342826
-0.3827189078484007
-0.3825995531883853
-0.3824656710164351
-0.3823155683780074
-0.3821473691763252
-0.3819590017980427
-0.3817481913113259
-0.381512459698097
-0.3812491390944096
-0.380955404141588
-0.380628320082314
-0.3802648499203503
-0.3798616653363124
-0.3794147579048627
-0.3789203069056938
-0.3783745307922215
-0.3777727762281535
-0.377110081259275
-0.3763811491958686
-0.3755802580769509
-0.3747012003593069
-0.3737372366435825
-0.3726810492994121
-0.3715246949703622
-0.370259556856661
-0.3688762967341577
-0.3673648066429102
-0.365714160906055
-0.3639125698509623
-0.3619473369731838
-0.3598048211620259
-0.3574704050640503
-0.3549284701959209
-0.3521623800009014
-0.3491544753954957
-0.3458860960156532
-0.3840294751037919
-0.3840292913802315
-0.3840290508528775
-0.3840287207251454
-0.3840282438767806
-0.3840275578061224
-0.3840265929687885
-0.3840252725931433
-0.384023516097006
-0.3840212426733386
-0.384018372758987
-0.3840148264192319
-0.3840105156424627
-0.3840053400165335
-0.3839991881457464
-0.3839919362415531
-0.3839834467870116
-0.3839735664538949
-0.3839621239195817
-0.3839489274908092
-0.3839337625881117
-0.3839163899669071
-0.3838965469283319
-0.3838739514613116
-0.3838482934684063
-0.3838192016186453
-0.3837862428886297
-0.3837489466761415
-0.3837067968640786
-0.3836592177516318
-0.3836055588790682
-0.3835450812584172
-0.3834769755630264
-0.3834003678924147
-0.3833142804813277
-0.3832176060081993
-0.3831090997793485
-0.3829873722265757
-0.3828508778052108
-0.3826979013634425
-0.3825265435340915
-0.3823347070095195
-0.3821200865142751
-0.3818801669865913
-0.3816122363632309
-0.3813134178699282
-0.380980710926752
-0.3806109855574979
-0.3802008386330614
-0.3797464001522433
-0.3792440296699463
-0.3786898640382765
-0.3780791509958672
-0.3774069386338091
-0.3766679727760276
-0.3758565853811059
-0.3749666378102849
-0.3739914765266827
-0.3729238850949597
-0.3717560342701302
-0.3704794319696651
-0.3690848729514514
-0.3675623879120611
-0.3659011925161209
-0.3640896377174014
-0.3621151634327333
-0.359964258008058
-0.3576224259209328
-0.355074166090802
-0.352302963679791
-0.3492913008764521
-0.3460206992987482
-0.3842596351347312
-0.3842595715061264
-0.3842594508731953
-0.3842592325206977
-0.3842588634503273
-0.3842582813919259
-0.3842574141735505
-0.3842561816754064
-0.3842545000415494
-0.3842522856156919
-0.3842494566782494
-0.3842459321673258
-0.3842416224728131
-0.3842364248296484
-0.384230225651697
-0.3842228986494717
-0.384214303611733
-0.3842042841944773
-0.3841926655647085
-0.3841792519370975
-0.384163824281603
-0.3841461395335004
-0.3841259330990512
-0.3841029193088135
-0.3840767684511529
-0.3840470888704234
-0.3840134443779462
-0.3839753595632739
-0.3839323064219107
-0.3838836963676071
-0.3838288714337548
-0.3837670848466508
-0.3836974915528447
-0.3836191826105532
-0.3835311736069367
-0.3834323482542809
-0.3833214457496515
-0.3831970544457974
-0.3830576020197781
-0.3829013427395003
-0.3827263433354299
-0.382530469007145
-0.3823113724436927
-0.3820664906010121
-0.38179305444475
-0.3814881123852449
-0.381148555943852
-0.3807711241234492
-0.380352378492923
-0.3798887011673828
-0.379376435043873
-0.3788114679886622
-0.3781890938408171
-0.3775043913349203
-0.3767521278791909
-0.3759266707851057
-0.375021937961221
-0.3740313525915564
-0.3729477931308178
-0.3717635420498404
-0.3704702351866366
-0.3690588116690592
-0.3675194642731293
-0.3658415905859254
-0.3640137458470268
-0.362023598809823
-0.3598578922573876
-0.3575024100122314
-0.3549419527446254
-0.3521603262316253
-0.3491403492464384
-0.3458638960775579
-0.3840997011503442
-0.3840998454843362
-0.3840999355355021
-0.3840999181128933
-0.3840997496257548
-0.3840993714384732
-0.3840987107257539
-0.3840976857834497
-0.3840962112075941
-0.3840942020451247
-0.3840915757396164
-0.3840882509347813
-0.3840841375513323
-0.3840791324413442
-0.3840731219156099
-0.3840659792696808
-0.3840575640697899
-0.384047719987334
-0.3840362724033975
-0.384023025993073
-0.384007762589506
-0.3839902403844437
-0.3839701946827758
-0.3839473329638525
-0.3839213133983089
-0.3838917420201547
-0.3838581863007067
-0.3838201679947362
-0.3837771536888738
-0.3837285483729682
-0.3836736891957141
-0.383611834858084
-0.3835421443071925
-0.3834636877609423
-0.3833754539990947
-0.3832763137045619
-0.383164997535681
-0.383040083538716
-0.3828999845819728
-0.3827429345704751
-0.3825669740974317
-0.3823699364908679
-0.3821494363059946
-0.3819028633653866
-0.3816273848141112
-0.3813199547889925
-0.380977332969674
-0.3805961327643114
-0.3801729306823833
-0.3797043118974232
-0.3791863405353152
-0.3786146424865967
-0.3779847037898582
-0.3772915658230348
-0.3765299530749184
-0.3756942216205243
-0.3747783032654747
-0.3737756553177775
-0.3726792104326935
-0.3714813256349883
-0.370173731637109
-0.3687474831868297
-0.3671929109174162
-0.3654995753182909
-0.3636562237311475
-0.3616507515282575
-0.3594701686685715
-0.357100572736778
-0.3545271297261798
-0.3517340650488765
-0.3487046710001297
-0.345421345475116
-0.3418656914017803
-0.3380187333417025
-0.3338613945500259
-0.329375147906078
-0.3245432065348401
-0.3193532114352315
-0.3137999868894432
-0.3078901338434644
-0.3016378499009296
-0.2950670463085849
-0.2881990692011882
-0.2810418451765144
-0.2736035977931024
-0.2658943090332812
-0.2579264739832247
-0.2497182762923474
-0.2412893297966616
-0.2326661737170018
-0.2238772805166313
-0.2149597280357661
-0.3834464112670926
-0.3834467543611466
-0.3834470482769413
-0.3834472285983856
-0.3834472624773089
-0.3834470974068115
-0.3834466632367234
-0.3834458804130318
-0.3834446655976859
-0.3834429356838157
-0.383440609735463
-0.383437607835113
-0.3834338411278121
-0.3834292086861856
-0.3834235997300707
-0.3834168900118824
-0.3834089418432494
-0.3833996021772464
-0.3833887002590111
-0.383376045210827
-0.3833614239077412
-0.3833446001750614
-0.3833253153734574
-0.3833032823539357
-0.3832781635288118
-0.3832495700155356
-0.3832170756871064
-0.3831802089236213
-0.3831384429802273
-0.3830911891608205
-0.3830377905122894
-0.3829775154879406
-0.3829095494635821
-0.3828329693272828
-0.382746749741537
-0.3826497647955809
-0.3825407491677696
-0.3824182841902744
-0.3822807849227654
-0.382126484690769
-0.3819534187407991
-0.3817594085748836
-0.3815420481645365
-0.3812986932765789
-0.3810264552499943
-0.380722202836332
-0.3803825863799994
-0.3800041181490073
-0.3795833171160393
-0.3791167082272333
-0.3786001535957625
-0.3780292571834766
-0.3773995367872647
-0.3767058354354721
-0.375942749681814
-0.3751045487917105
-0.3741850942489252
-0.373177789999413
-0.3720755384207737
-0.3708706938146205
-0.369555015323756
-0.3681196211546758
-0.3665549448415848
-0.3648506939923588
-0.3629958121384749
-0.3609784445056335
-0.3587859086689408
-0.3564046711057091
-0.3538203309038676
-0.3510176130261097
-0.3479803769324015
-0.3446916545230851
-0.3411337461909585
-0.3372884265338206
-0.3331374148560274
-0.3286630038513816
-0.3238490924110835
-0.3186838149841884
-0.3131623496295389
-0.3072915880797987
-0.3010862284523674
-0.2945706211879974
-0.2877661954844147
-0.2806813263106845
-0.2733243390697851
-0.2657042191545885
-0.2578328356379095
-0.249727128920977
-0.2414053300860131
-0.2328922486937722
-0.2242143380642753
-0.2154066688463732
-0.2065042875684067
-0.1975576494603132
-0.1886055455172664
-0.1797262130252236
-0.1709393186441305
-0.1623896890192098
-0.1540049110711235
-0.1461007415652791
-0.1383619612132866
-0.1314405978538272
-0.1246897880328292
-0.1190262430310859
-0.1139215220381354
-0.1098040534850594
-0.1073299074860877
-0.1039724651235588
-0.3825303539946848
-0.3825307564318708
-0.382531112159138
-0.3825313533930151
-0.3825314509970806
-0.3825313553810636
-0.3825309985861273
-0.3825303032294899
-0.3825291880028317
-0.3825275713091967
-0.3825253732306488
-0.3825225142457343
-0.3825189061153164
-0.3825144493271445
-0.3825090343296051
-0.3825025375286153
-0.3824948218005288
-0.3824857346934392
-0.3824751059379242
-0.3824627450116089
-0.3824484397808645
-0.3824319585169439
-0.3824130532500483
-0.3823914432286901
-0.3823667866209362
-0.382338692862186
-0.3823067396677598
-0.3822704591969434
-0.3822293281156912
-0.3821827611846296
-0.3821301052295457
-0.3820706328473751
-0.3820035320647379
-0.3819278732227209
-0.3818426255123392
-0.3817466738167433
-0.3816387658906477
-0.3815174868527978
-0.3813812500249374
-0.3812282856284072
-0.3810566251763899
-0.3808640841077056
-0.3806482447183083
-0.38040644098425
-0.3801357480166538
-0.3798329831318193
-0.3794947335450448
-0.3791174316529583
-0.378697472672139
-0.3782312387990805
-0.3777146874206081
-0.3771435858746088
-0.3765132774534208
-0.375818374643673
-0.3750533736017505
-0.3742124729334103
-0.3732894657557962
-0.3722776972990519
-0.3711700284044121
-0.3699587932202574
-0.3686357562693498
-0.3671920720621044
-0.3656182481045913
-0.363904111605425
-0.3620387800509287
-0.3600106356829456
-0.3578073038273816
-0.3554156351319583
-0.3528216923560288
-0.3500107439795666
-0.346967270768866
-0.3436749997199899
-0.340116994808479
-0.3362758519986566
-0.3321341619717864
-0.3276751214594949
-0.3228834105730988
-0.3177477290536694
-0.3122636448073039
-0.3064383127985154
-0.3002868513512885
-0.2938339440316225
-0.2871009703408755
-0.2800966194033174
-0.2728292824463692
-0.2653068675751046
-0.2575404945875605
-0.2495457897577007
-0.2413395470444135
-0.2329448156449278
-0.224386031886794
-0.2156962943618857
-0.2069082046758637
-0.1980705424278576
-0.1892190231970214
-0.1804318157969132
-0.1717238238549156
-0.1632436118000073
-0.1549116017546495
-0.1470500063964769
-0.139342032092953
-0.1324306594083425
-0.1257036774411315
-0.1200162008993798
-0.1149417335756761
-0.1108205192069485
-0.1083559179287419
-0.1053491997036032
-0.3817188681321052
-0.3817192782579042
-0.3817196388378914
-0.3817198801697685
-0.3817199712803919
-0.3817198596528535
-0.3817194737022581
-0.3817187319352706
-0.3817175488151082
-0.3817158387353076
-0.3817135179223852
-0.3817105033788962
-0.3817067041071546
-0.3817020173049444
-0.3816963282523903
-0.381689507391843
-0.3816814111852428
-0.3816718799579323
-0.3816607350900556
-0.3816477767421315
-0.3816327840079675
-0.3816155200162457
-0.3815957334241654
-0.3815731242851515
-0.3815473276489165
-0.3815179422549823
-0.3814845322329439
-0.3814466124882111
-0.3814036405967481
-0.3813550109271262
-0.3813000483524171
-0.3812380013419265
-0.3811680310713751
-0.3810891862943686
-0.3810003825512797
-0.3809004547028874
-0.3807881484550721
-0.3806620342707952
-0.3805204942898163
-0.3803617198207702
-0.3801837017859809
-0.3799842154226269
-0.3797608027233233
-0.379510755763498
-0.3792311054849444
-0.378918622983373
-0.3785698420972637
-0.3781811150523676
-0.3777487201137413
-0.3772689969166336
-0.3767382060830914
-0.3761523514668331
-0.375506619904427
-0.3747955436695909
-0.3740136788846286
-0.3731553107651419
-0.3722143259851908
-0.3711841769426248
-0.3700578464391737
-0.3688278025864665
-0.3674859533210852
-0.3660236049783143
-0.3644314263505501
-0.3626994191998516
-0.3608168958477357
-0.3587724637613796
-0.3565540163399563
-0.3541487285830839
-0.3515430564847606
-0.3487227405435312
-0.3456728179617664
-0.34237765704705
-0.338821043593604
-0.3349863637905944
-0.330857054464078
-0.3264171979621238
-0.3216522541936702
-0.3165514837450881
-0.3111108356924223
-0.3053376943885223
-0.2992475317539726
-0.29286529621929
-0.2862121558162775
-0.2792968955398284
-0.2721279288546968
-0.264711970868338
-0.257059248562534
-0.2491840089227342
-0.2411015568778891
-0.2328331598953992
-0.2244012485200242
-0.2158369979530768
-0.2071706054076127
-0.1984492959954046
-0.1897057155422335
-0.1810181172835619
-0.1723966352785151
-0.1639934843205136
-0.1557223184394037
-0.147910781232922
-0.1402419077196487
-0.1333477838796724
-0.1266510454471559
-0.1209482561633281
-0.1159031240968625
-0.1117896142000471
-0.1093206324900392
-0.1066636064174328
-0.3808124773164726
-0.3808131067372407
-0.380813685496803
-0.3808141294647327
-0.3808144148297268
-0.3808144888663634
-0.3808142742108187
-0.3808136821839532
-0.3808126200279943
-0.3808109957311289
-0.3808087202973713
-0.3808057068043812
-0.3808018609562223
-0.380797076017287
-0.3807912318802695
-0.3807841924961949
-0.3807758078502118
-0.3807659114480361
-0.380754317282373
-0.3807408177592235
-0.3807251838528601
-0.3807071675372821
-0.3806864955706591
-0.380662843435494
-0.3806358333876178
-0.3806050522224318
-0.3805700442059205
-0.3805303010166937
-0.3804852550905927
-0.3804342734058945
-0.380376650583276
-0.3803116016149882
-0.380238253769588
-0.3801556312108883
-0.3800626185233282
-0.3799579971189805
-0.3798404544572063
-0.379708508631046
-0.3795604929236676
-0.3793945460796412
-0.3792085992350637
-0.3790003609188174
-0.3787673010667736
-0.3785066352171189
-0.3782153126292327
-0.3778900145135159
-0.3775271707695432
-0.3771230124387739
-0.3766736971026498
-0.3761755057233586
-0.3756247944363461
-0.3750177664772028
-0.3743496456698162
-0.3736149227855492
-0.372808238779776
-0.3719240134474539
-0.3709562980446476
-0.3698987434389203
-0.3687445649943897
-0.3674864933149566
-0.3661167234335244
-0.3646268680899796
-0.363007917221337
-0.3612502054730565
-0.3593433891635205
-0.3572764332283858
-0.3550376075892844
-0.3526144914176606
-0.3499939832875309
-0.3471623161409405
-0.3441050796228622
-0.3408072610355555
-0.3372533332678174
-0.3334274302070797
-0.3293137841052791
-0.324897306098593
-0.3201641829031042
-0.3151041711459938
-0.309713535511128
-0.3039998213511269
-0.297978767620493
-0.2916755418447384
-0.2851109739603425
-0.2782936725455724
-0.2712319711862823
-0.2639312606978907
-0.2564007328537236
-0.2486531964973523
-0.2407024222378037
-0.23256788857446
-0.224270043495686
-0.2158382029785165
-0.2073002128434268
-0.1987018796514215
-0.1900728034872379
-0.1814914778294931
-0.1729633018453688
-0.1646440324429031
-0.1564410018323173
-0.1486862828217504
-0.1410640379403892
-0.1341939161991413
-0.1275331132164108
-0.1218231312074163
-0.1168062087589349
-0.1127103043244521
-0.1102248334308619
-0.1079171219463896
-0.3792230078564799
-0.3792240367680101
-0.379225022425171
-0.3792258573894213
-0.3792265375761197
-0.3792270193872615
-0.3792272269924687
-0.3792270716018384
-0.3792264604478748
-0.3792253016294379
-0.3792235067598135
-0.3792209899248122
-0.379217657411011
-0.3792134047498674
-0.3792081150154192
-0.3792016542947528
-0.3791938754185762
-0.3791846157174664
-0.3791736939788636
-0.379160908218411
-0.3791460347522946
-0.3791288266803608
-0.3791090045953207
-0.3790862460292375
-0.3790601834442184
-0.3790304069733808
-0.378996462929534
-0.3789578449131788
-0.3789139869104574
-0.3788642567768034
-0.3788079489302162
-0.3787442759021398
-0.3786723591563412
-0.3785912218314396
-0.3784997873996597
-0.3783968587756337
-0.3782810788026094
-0.3781509185870871
-0.3780046791125892
-0.3778404758397238
-0.3776562136843237
-0.3774495640600375
-0.3772179450923155
-0.3769585036967897
-0.3766681005874745
-0.3763433036556116
-0.3759804011404668
-0.375575455245476
-0.3751244271937847
-0.3746233768528165
-0.3740685457134661
-0.3734561608543875
-0.3727813614802513
-0.3720384746962508
-0.3712220373253712
-0.3703264061234912
-0.3693456066055563
-0.3682733114410421
-0.3671028141432393
-0.3658269854144097
-0.3644382261088663
-0.3629284229288709
-0.3612889090744295
-0.3595104316816622
-0.3575831273892201
-0.3554965064075968
-0.3532394445118525
-0.3508001816801609
-0.3481663259349074
-0.3453248619576305
-0.342262167519109
-0.3389640488282205
-0.3354158228974077
-0.3316024837876215
-0.3275091262452087
-0.3231215180720098
-0.3184265692665847
-0.3134144749816872
-0.3080817094207686
-0.3024358366168618
-0.2964926840765958
-0.2902775011627366
-0.2838106851710736
-0.2771004531600535
-0.2701549481998073
-0.2629781520301123
-0.2555781035325568
-0.2479661251061243
-0.2401544191957953
-0.2321606851177376
-0.2240034245632526
-0.215710175020475
-0.2073064964569702
-0.1988369264921335
-0.1903280606973849
-0.1818587898092384
-0.1734298495992919
-0.1652004141518904
-0.1570719764226867
-0.1493800734705192