/*--------------------------------*- C++ -*----------------------------------*\
| =========                 |                                                 |
| \\      /  F ield         | OpenFOAM: The Open Source CFD Toolbox           |
|  \\    /   O peration     | Version:  v1812                                 |
|   \\  /    A nd           | Web:      www.OpenFOAM.com                      |
|    \\/     M anipulation  |                                                 |
\*---------------------------------------------------------------------------*/
FoamFile
{
    version     2.0;
    format      ascii;
    class       surfaceScalarField;
    location    "1000";
    object      phi;
}
// * * * * * * * * * * * * * * * * * * * * * * * * * * * * * * * * * * * * * //

dimensions      [0 3 -1 0 0 0 0];
oriented        oriented;


internalField   nonuniform List<scalar> 
22024
(
1.786354603311404e-10
2.881090767352143e-08
7.137514178237263e-10
8.717744683349026e-08
1.613930757804827e-09
1.479644193367456e-07
2.896318119510619e-09
2.128491763296314e-07
4.583896362786001e-09
2.834119458944215e-07
6.699217100777544e-09
3.609050304076363e-07
9.256639704403943e-09
4.459842622687925e-07
1.226008874669903e-08
5.386755215096042e-07
1.570928192720242e-08
6.387562174377081e-07
1.961008643134803e-08
7.462853394263287e-07
2.398045700508034e-08
8.618711843631915e-07
2.886431774031542e-08
9.867686755296961e-07
3.431743640563838e-08
1.122671335562523e-06
4.039234821913367e-08
1.27125155966602e-06
4.714866536301341e-08
1.434118527644313e-06
5.465462293556034e-08
1.612998900660786e-06
6.298788951934309e-08
1.809775308055223e-06
7.223609217463567e-08
2.026500388669433e-06
8.249745437602247e-08
2.265410425853194e-06
9.388168740922319e-08
2.528948353639736e-06
1.065110061802127e-07
2.819787512983817e-06
1.205214233047142e-07
3.140857815903202e-06
1.360640148982833e-07
3.495375515016609e-06
1.533068770613744e-07
3.886874314135486e-06
1.72436737558451e-07
4.319242181433378e-06
1.936616401304612e-07
4.796758741049366e-06
2.172129630691468e-07
5.324139047695596e-06
2.433488090639762e-07
5.90657860994597e-06
2.723568728251659e-07
6.549804267721929e-06
3.045577081943052e-07
7.260129080045379e-06
3.403077347411028e-07
8.044509649638736e-06
3.800021926365341e-07
8.910609048966641e-06
4.240758038383078e-07
9.866861208716845e-06
4.730006695028807e-07
1.092253609676164e-05
5.272793638749425e-07
1.208780163145175e-05
5.874266905280528e-07
1.337377629657195e-05
6.539365388907356e-07
1.479255815355962e-05
7.27221014235624e-07
1.635721533030664e-05
8.075114687699207e-07
1.80817043393123e-05
8.947098274271708e-07
1.998068603202926e-05
9.881947084693401e-07
2.20692059374979e-05
1.086628462782091e-06
2.436225883983823e-05
1.187877271762713e-06
2.687437305182617e-05
1.289219260652909e-06
2.961955764641673e-05
1.387983264057863e-06
3.26121763531817e-05
1.482625073769912e-06
3.586929775015879e-05
1.574297597759509e-06
3.941469749472689e-05
1.663858725737483e-06
4.327843362898809e-05
1.750136787156155e-06
4.749056882746315e-05
1.832131246670857e-06
5.20808503675605e-05
5.708236734945208e-05
1.74649451697879e-10
2.863625821732125e-08
6.974412139031074e-10
8.665465506588611e-08
1.577226026512799e-09
1.470846345183286e-07
2.831711832585992e-09
2.115946905149899e-07
4.484367586745569e-09
2.817592901337181e-07
6.558181082231202e-09
3.588312169063657e-07
9.068133359896535e-09
4.434743099851322e-07
1.20183999843315e-08
5.357252548778078e-07
1.540900737454111e-08
6.353656100301725e-07
1.924572513444493e-08
7.424486216619404e-07
2.354665831363639e-08
8.575702511699193e-07
2.835549878665644e-08
9.819598350570286e-07
3.372759639441569e-08
1.117299237944496e-06
3.971573596789489e-08
1.265263420077792e-06
4.637979063629872e-08
1.427454472961157e-06
5.378858626324621e-08
1.605590105024643e-06
6.202054492170889e-08
1.801543349369418e-06
7.1163845291343e-08
2.017357088278245e-06
8.131777202270838e-08
2.255256499096982e-06
9.259276615166526e-08
2.51767335948443e-06
1.05111929619493e-07
2.807268349484273e-06
1.19011581192343e-07
3.126958164300412e-06
1.344432879508035e-07
3.479943808218621e-06
1.515747063266686e-07
3.869742895714898e-06
1.705918516937037e-07
4.300225036011593e-06
1.917003614060279e-07
4.775650231278031e-06
2.151287697236224e-07
5.300710639300467e-06
2.411299869562456e-07
5.880577392628633e-06
2.699845044535894e-07
6.520949750123153e-06
3.02003425773471e-07
7.228110158607444e-06
3.375311531098746e-07
8.008981922160488e-06
3.769477292167311e-07
8.871192472695913e-06
4.206709378991862e-07
9.823137999832279e-06
4.691554191168781e-07
1.087405161530748e-05
5.228879363756074e-07
1.203406911390575e-05
5.823761522288133e-07
1.331428808037666e-05
6.481226383120181e-07
1.472681166705759e-05
7.205805380064466e-07
1.628475743011007e-05
8.000747105705895e-07
1.800221016613625e-05
8.866810821791484e-07
1.989407965968114e-05
9.800571294547542e-07
2.197582988932907e-05
1.079242433989746e-06
2.426307353422622e-05
1.18249986171865e-06
2.67711156228228e-05
1.287344119377397e-06
2.951471338725194e-05
1.390985864558135e-06
3.250853460625459e-05
1.491426633867199e-06
3.576885697881958e-05
1.589297278245062e-06
3.931682684796592e-05
1.685696117838819e-06
4.318203478655578e-05
1.779988133473245e-06
4.739627680856266e-05
1.871193969003494e-06
5.198964461209399e-05
1.958555087936467e-06
5.699500582427624e-05
6.24489817209608e-05
1.792667979993344e-10
2.845699141244801e-08
7.169464558954959e-10
8.611697539989906e-08
1.622323546389841e-09
1.46179257413187e-07
2.913342606607381e-09
2.103036714433127e-07
4.613817237616083e-09
2.800588154942425e-07
6.747047307750422e-09
3.566979868208948e-07
9.327606022607166e-09
4.408937512601847e-07
1.235877235208844e-08
5.326940885253887e-07
1.583880787101101e-08
6.31885574497259e-07
1.97716517608095e-08
7.385157777564278e-07
2.417362210398642e-08
8.531682808092841e-07
2.908712678214864e-08
9.770463303600479e-07
3.456611076380767e-08
1.111820253947138e-06
4.066251633910124e-08
1.259167014478719e-06
4.743552908194683e-08
1.420681460190691e-06
5.495343196706313e-08
1.598072202117789e-06
6.329443024125659e-08
1.793202351065939e-06
7.254715063124303e-08
2.008104367854416e-06
8.281098326000894e-08
2.244992666433706e-06
9.419729041648049e-08
2.506287052289294e-06
1.068300624377671e-07
2.79463557741639e-06
1.208472148480044e-07
3.112941011846711e-06
1.364016464953998e-07
3.46438937651308e-06
1.53662743800138e-07
3.852481798343416e-06
1.728178219566526e-07
4.281069957778405e-06
1.940742775689191e-07
4.754393775575199e-06
2.176608140755531e-07
5.277124102691011e-06
2.438304182388361e-07
5.854407788343152e-06
2.728621755494401e-07
6.491917992671494e-06
3.050639497454248e-07
7.195908384243526e-06
3.407748920924314e-07
7.973270979612646e-06
3.803681320238226e-07
8.831599232523338e-06
4.242518529774268e-07
9.779254278595651e-06
4.72870034756334e-07
1.082543343319087e-05
5.266998068937018e-07
1.198023934135914e-05
5.862427552577286e-07
1.325474513152795e-05
6.520075481855351e-07
1.46610468735474e-05
7.244751500244961e-07
1.621228982757009e-05
8.04038023899819e-07
1.792264729140833e-05
8.909003105134695e-07
1.980721737204045e-05
9.849289900044037e-07
2.188180120860731e-05
1.085461710285831e-06
2.416254081248194e-05
1.19112363640722e-06
2.666545369496983e-05
1.299786518985028e-06
2.940605050265678e-05
1.408880624655212e-06
3.239944049825926e-05
1.516216535957134e-06
3.566152106485805e-05
1.62122808361068e-06
3.921181529724789e-05
1.725026688663635e-06
4.307823617793226e-05
1.827944650721256e-06
4.729335884233473e-05
1.929028057871259e-06
5.188856120163565e-05
2.027523644394458e-06
5.68965103966499e-05
2.122941888470163e-06
6.235356323557685e-05
6.830025508564122e-05
2.006585449622533e-10
2.82563328658516e-08
7.996419214042055e-10
8.551799202301732e-08
1.805461522154685e-09
1.45173437815427e-07
3.236684774353722e-09
2.088724481988906e-07
5.118381106683865e-09
2.781771191645406e-07
7.475032368749119e-09
3.543413355700902e-07
1.032210878918728e-08
4.380466748448714e-07
1.366240974495701e-08
5.29353787577869e-07
1.749340575384341e-08
6.280545784905457e-07
2.181853108803482e-08
7.341906524307287e-07
2.665416861460594e-08
8.483326432910836e-07
3.204402691734225e-08
9.716564720696668e-07
3.804402897925605e-08
1.105820251897452e-06
4.470750492565783e-08
1.252503538542401e-06
5.209526711684209e-08
1.413293698006471e-06
6.027767862570102e-08
1.589889790623368e-06
6.933487238825898e-08
1.784145157312259e-06
7.935801203718552e-08
1.998081228210129e-06
9.04492567461667e-08
2.233901421735987e-06
1.027232922863961e-07
2.494013016759368e-06
1.163077594722574e-07
2.781051110242159e-06
1.313448157109306e-07
3.09790395562572e-06
1.47992391720581e-07
3.447741800519314e-06
1.664256012767045e-07
3.834048588806994e-06
1.868384520564515e-07
4.260657107021378e-06
2.094454909081605e-07
4.731786736750287e-06
2.344839041548677e-07
5.252085689475937e-06
2.622153487734112e-07
5.826676343760712e-06
2.929279903909799e-07
6.461205351090322e-06
3.269395471809612e-07
7.161896827497224e-06
3.645985341347427e-07
7.935611992711761e-06
4.06287150052757e-07
8.789910616664869e-06
4.524228119074407e-07
9.733118616814431e-06
5.034588312571505e-07
1.077439741392302e-05
5.598827561948591e-07
1.192381541651681e-05
6.222113845353371e-07
1.319241650330188e-05
6.909769954626586e-07
1.459228126275365e-05
7.667014115536575e-07
1.613656541163953e-05
8.498472959209866e-07
1.783950140721955e-05
9.40736728800649e-07
1.971632793937318e-05
1.039423742561594e-06
2.178311419509584e-05
1.14552387424774e-06
2.40564406810793e-05
1.258032989856594e-06
2.655294457968142e-05
1.375227119431773e-06
2.928885637343995e-05
1.494796224797711e-06
3.227987139326368e-05
1.614368552504137e-06
3.554194873751343e-05
1.732523990733364e-06
3.909365985932933e-05
1.850421029774281e-06
4.296033913909569e-05
1.969066052236498e-06
4.717471381991507e-05
2.087614802174975e-06
5.177001245148001e-05
2.205385737882344e-06
5.677873946214113e-05
2.321942845123159e-06
6.223700645359152e-05
2.437141299013628e-06
6.818505666505779e-05
7.466775299256463e-05
2.082804532061514e-10
2.804805241280887e-08
8.304226088341075e-10
8.489584986866093e-08
1.875734381367109e-09
1.441281260470659e-07
3.364003552552087e-09
2.073841790243219e-07
5.321814949398712e-09
2.762193077791083e-07
7.775325165939852e-09
3.518878253480858e-07
1.074117297880486e-08
4.35080827040604e-07
1.422319954926074e-08
5.258717610202006e-07
1.821941503192444e-08
6.240583630077134e-07
2.273379877769359e-08
7.296762686938042e-07
2.778395890307284e-08
8.432824831654691e-07
3.341635816202815e-08
9.660240728177186e-07
3.969017137707309e-08
1.099546438695196e-06
4.666100732326686e-08
1.245532702599881e-06
5.439209488058622e-08
1.405562610453618e-06
6.295570144981092e-08
1.581326184064837e-06
7.243423173396455e-08
1.774666627035305e-06
8.292055283568948e-08
1.987594907122132e-06
9.451850919381286e-08
2.222303465389814e-06
1.073437538932334e-07
2.481187772070389e-06
1.215248762174749e-07
2.766869987934276e-06
1.37204392480681e-07
3.082224439377049e-06
1.545403716609605e-07
3.430405821357499e-06
1.737075488553603e-07
3.814881411633645e-06
1.948995234617468e-07
4.239465132440195e-06
2.183302264219491e-07
4.708356033816124e-06
2.442359186515689e-07
5.226179997279852e-06
2.728776306760146e-07
5.798034631772315e-06
3.045429187264807e-07
6.429540063086348e-06
3.395481959501041e-07
7.126891550326168e-06
3.782411250083234e-07
7.896919063715151e-06
4.210024349715519e-07
8.747149306769157e-06
4.682474993345158e-07
9.685873552540933e-06
5.204269962070371e-07
1.072221791715168e-05
5.780262572192584e-07
1.186621615562478e-05
6.415609207552591e-07
1.312888183990493e-05
7.115673761432061e-07
1.452227480753883e-05
7.885817802863957e-07
1.605955100769858e-05
8.731026098681166e-07
1.775498057788381e-05
9.655239625998507e-07
1.962390658693508e-05
1.066030983303875e-06
2.16826071747432e-05
1.174449658655928e-06
2.394802200614341e-05
1.290064733236789e-06
2.643732950560838e-05
1.411463138869785e-06
2.91674579683998e-05
1.536538053475526e-06
3.215479647935262e-05
1.6628750391609e-06
3.541561175261467e-05
1.788755313183501e-06
3.896777958618393e-05
1.914857483130066e-06
4.283423697012623e-05
2.042380840125446e-06
4.704719046400051e-05
2.170982088892006e-06
5.164141120389325e-05
2.299965284785959e-06
5.664975626751405e-05
2.428871551223865e-06
6.210810019044421e-05
2.557530913488202e-06
6.805639730830392e-05
2.686089279071823e-06
7.453919463386539e-05
2.815016865996456e-06
8.160612559978892e-05
2.945100941839698e-06
8.931239841444614e-05
3.077431666015142e-06
9.771929657902131e-05
3.213386021250055e-06
0.0001068947155274338
3.35461127912395e-06
0.0001169137518746185
3.503009851332329e-06
0.0001278593540681607
3.660721151942299e-06
0.0001398230430995872
3.830097637166156e-06
0.0001529056978897199
4.013674177516287e-06
0.0001672184113389871
4.214128529498189e-06
0.0001828834233903911
4.434240200251723e-06
0.000200035150727208
0.0002188213484284776
1.912708007820113e-10
2.785678161735996e-08
7.666167692648088e-10
8.432050391634743e-08
1.738170234033963e-09
1.431565725942304e-07
3.127727597127141e-09
2.059946216830529e-07
4.963624439667013e-09
2.743834109572129e-07
7.273637283346678e-09
3.495778125312718e-07
1.007611858170898e-08
4.322783457631031e-07
1.337623637133739e-08
5.22571643261024e-07
1.717278508056059e-08
6.202618143162354e-07
2.147019177957598e-08
7.253788620236617e-07
2.62860345224555e-08
8.38466640455532e-07
3.166676912077408e-08
9.606433382468985e-07
3.7671732811524e-08
1.093541475037985e-06
4.435758137594967e-08
1.238846854070822e-06
5.178854448658652e-08
1.39813164738128e-06
6.003853349643121e-08
1.57307619509007e-06
6.919145812605787e-08
1.765513702452565e-06
7.934171424114408e-08
1.977444651056847e-06
9.059483372948582e-08
2.211050345961905e-06
1.03067722536233e-07
2.468714883322258e-06
1.168899982049634e-07
2.753047712334393e-06
1.32204801179079e-07
3.066909636488061e-06
1.491699598373359e-07
3.413440662792364e-06
1.679595956177194e-07
3.796091775960373e-06
1.887656118966779e-07
4.218659116277432e-06
2.117999007788778e-07
4.685321745076035e-06
2.372962593912676e-07
5.200683638837599e-06
2.655116109394192e-07
5.769819280409949e-06
2.967284498178787e-07
6.398323224431698e-06
3.312564113004444e-07
7.09236358910548e-06
3.69434958310006e-07
7.858740517021467e-06
4.116360208226831e-07
8.704948244623274e-06
4.58266267207064e-07
9.639243306586437e-06
5.097684599910955e-07
1.067071572488438e-05
5.666201129155536e-07
1.180936450331505e-05
6.293312473533411e-07
1.306617070619554e-05
6.984363964383136e-07
1.445316965932673e-05
7.744788656792063e-07
1.598350853950634e-05
8.579807860366029e-07
1.767147865878026e-05
9.493898233733058e-07
1.953249755110653e-05
1.048991495680363e-06
2.15830055042382e-05
1.156776221056926e-06
2.384023728292244e-05
1.272263677656528e-06
2.632184205156013e-05
1.394333255648019e-06
2.904538839340297e-05
1.521182222881327e-06
3.202794751557809e-05
1.650611983784723e-06
3.528618199563528e-05
1.780790369167207e-06
3.88376012052072e-05
1.911386049640054e-06
4.270364129459023e-05
2.043616022758715e-06
4.691496049643961e-05
2.177998873854503e-06
5.150702835901413e-05
2.313880038131755e-06
5.651387511014283e-05
2.450811350458114e-06
6.19711688857246e-05
2.588621413558968e-06
6.791858725351757e-05
2.727453597884623e-06
7.440036245855448e-05
2.867781371012267e-06
8.146579783635844e-05
3.010405229257515e-06
8.916977456654906e-05
3.15643976851596e-06
9.75732620507089e-05
3.307296685160049e-06
0.0001067438586222665
3.464668618436614e-06
0.0001167563799532492
3.630511710667228e-06
0.0001276935109881283
3.807029024164805e-06
0.0001396465257983931
3.996647830137327e-06
0.000152716079095922
4.201991464537785e-06
0.0001670130677163076
4.425843232001133e-06
0.0001826595716340466
4.671105337778258e-06
0.0001997898886557737
4.940764167499573e-06
0.0002185516896391212
0.0002391073346713508
1.966978554712862e-10
2.766008376414232e-08
7.891470269294325e-10
8.372805475904214e-08
1.789032999101314e-09
1.421566866214273e-07
3.21715384894893e-09
2.045665008503297e-07
5.100934100800321e-09
2.724996307163149e-07
7.46722889265478e-09
3.472115177501769e-07
1.033284310544361e-08
4.294127315684301e-07
1.370067816004445e-08
5.192038082201865e-07
1.75664716028257e-08
6.163960208932084e-07
2.193091155200129e-08
7.210144220852733e-07
2.680826550112332e-08
8.335892865306352e-07
3.224042789386092e-08
9.552111758698096e-07
3.828252199014095e-08
1.087499380959331e-06
4.498776163944242e-08
1.232141614441419e-06
5.241771027784353e-08
1.390701698767545e-06
6.064366575921135e-08
1.56485023962766e-06
6.974783142021428e-08
1.756409536819655e-06
7.98233579446898e-08
1.967369124560397e-06
9.097502964113703e-08
2.199898674296226e-06
1.033202340002325e-07
2.456369678999765e-06
1.169897033260242e-07
2.739378243048794e-06
1.321288451711404e-07
3.051770494688417e-06
1.488990365403227e-07
3.39667047147484e-06
1.674790577230568e-07
3.777511754839961e-06
1.88064956985526e-07
4.198073217086648e-06
2.108669300627938e-07
4.662519772076008e-06
2.360977095193783e-07
5.175452859472587e-06
2.639896616752396e-07
5.741927328358666e-06
2.948267448710429e-07
6.367486141363578e-06
3.28940173411364e-07
7.058250160710157e-06
3.666854137183343e-07
7.820995276886476e-06
4.084345992045807e-07
8.663199059340151e-06
4.545860193332141e-07
9.593091886706216e-06
5.055705192567799e-07
1.061973122524569e-05
5.618542487865481e-07
1.175308077413206e-05
6.239374741289009e-07
1.300408748126806e-05
6.923494534946916e-07
1.438475768045118e-05
7.676347031725125e-07
1.590822329042337e-05
8.503289858006847e-07
1.758878437686864e-05
9.409151172704342e-07
1.944191142049682e-05
1.039748027311518e-06
2.148417259522423e-05
1.146938283959864e-06
2.373304702751002e-05
1.262197703054608e-06
2.620658263394118e-05
1.384678235818743e-06
2.89229078623845e-05
1.512900944852913e-06
3.18997248085774e-05
1.644914497904396e-06
3.515416844492206e-05
1.778803494599479e-06
3.870371221118133e-05
1.913539281354527e-06
4.2568905510872e-05
2.05015975327751e-06
4.677834002799504e-05
2.189594155773163e-06
5.136759396050034e-05
2.331328069313583e-06
5.637214120114289e-05
2.47499739412087e-06
6.182749956604905e-05
2.620473668710282e-06
6.777311098467622e-05
2.767921463991879e-06
7.425291466964705e-05
2.917829181262253e-06
8.131589012609599e-05
3.071017512366494e-06
8.90165862430711e-05
3.228632872008529e-06
9.741564669928844e-05
3.392133197540129e-06
0.0001065803583054969
3.563272188894033e-06
0.0001165852409711273
3.744083179215391e-06
0.0001275127000073798
3.93686138549064e-06
0.0001394537476018698
4.144143326799091e-06
0.0001525087971643142
4.368677209527414e-06
0.0001667885338429215
4.613388096026688e-06
0.0001824148607561429
4.8813364549815e-06
0.0001995219403049137
5.175676967233759e-06
0.0002182573491534705
5.499631348587121e-06
0.0002387833803182576
0.0002612785134823323
2.599402823157027e-10
2.740014348509567e-08
1.029778081431731e-09
8.295821698094627e-08
2.315121363573613e-09
1.40871343353301e-07
4.13450448397678e-09
2.02747117745934e-07
6.514543457364472e-09
2.701195917650125e-07
9.481484899570939e-09
3.442445763342693e-07
1.305066401744372e-08
4.258435524839048e-07
1.722197428032004e-08
5.150324979784724e-07
2.198769653595584e-08
6.116302986599973e-07
2.734612132933292e-08
7.156559973197823e-07
3.331046813317285e-08
8.276249397551698e-07
3.992510014726565e-08
9.485965438799416e-07
4.7247606910837e-08
1.080176874224597e-06
5.533168198177971e-08
1.224057539401413e-06
6.423919828660974e-08
1.381794182496451e-06
7.404181064742148e-08
1.555047627301966e-06
8.482202792830489e-08
1.745629319574925e-06
9.66736045821105e-08
1.955517547949688e-06
1.097024483151074e-07
2.186869830608643e-06
1.240275525865501e-07
2.442044574779625e-06
1.397822558278052e-07
2.72362353987009e-06
1.571160925268749e-07
3.034436658056872e-06
1.761958888749936e-07
3.377590675211133e-06
1.972063240023601e-07
3.75650131980224e-06
2.203486931989574e-07
4.174930847997005e-06
2.458322423209877e-07
4.637036223077696e-06
2.738668952284208e-07
5.147418206708553e-06
3.046860501759879e-07
5.711108173576937e-06
3.385768620007017e-07
6.333595329730265e-06
3.758898749885065e-07
7.020937147953846e-06
4.170151535918571e-07
7.779869998556604e-06
4.62353022189244e-07
8.617861191055629e-06
5.123216384427963e-07
9.543123270833138e-06
5.673653984841318e-07
1.056468746565093e-05
6.279612420198938e-07
1.169248493112628e-05
6.946198803231306e-07
1.293742884360064e-05
7.67883162499065e-07
1.431149439903444e-05
8.483148413182213e-07
1.58277916125183e-05
9.364796070198495e-07
1.750061961225898e-05
1.032905732290846e-06
1.934548529653651e-05
1.138021012360714e-06
2.137905731672442e-05
1.252054273153921e-06
2.361901376859196e-05
1.374896259204301e-06
2.608374065012189e-05
1.505941724754845e-06
2.879186239945687e-05
1.643966786206824e-06
3.176169975018498e-05
1.787161580488665e-06
3.501097365413841e-05
1.93349663145787e-06
3.855737716416498e-05
2.081641148009769e-06
4.242076099876148e-05
2.23260016860062e-06
4.662738101240998e-05
2.387407214737822e-06
5.121278692000979e-05
2.545562965407112e-06
5.621398545679033e-05
2.706715286065835e-06
6.166634725239139e-05
2.870735591403142e-06
6.760909068703131e-05
3.037769995306871e-06
7.408588027410054e-05
3.208271973965005e-06
8.114538815643573e-05
3.383017658030479e-06
8.884184056860073e-05
3.563105229515158e-06
9.723555913792118e-05
3.749945589969174e-06
0.0001063935179555962
3.945250507031294e-06
0.0001163899360649361
4.151018205962635e-06
0.0001273069323194869
4.369521091211439e-06
0.0001392352447276174
4.60328799214684e-06
0.0001522750302740986
4.855083259651987e-06
0.0001665367385855562
5.127876967425602e-06
0.0001821420670575757
5.424809181394678e-06
0.000199225008098829
5.74915342646032e-06
0.0002179330049155142
6.104286216027232e-06
0.0002384282475357222
6.493677009569974e-06
0.0002608891227036063
6.920909147608686e-06
0.0002855118030850677
0.0003125118441495533
2.930033008122954e-10
2.710714018802643e-08
1.161302822446881e-09
8.208991746390275e-08
2.612090755671032e-09
1.39420555421146e-07
4.6672842168988e-09
2.006919242912083e-07
7.358058038845888e-09
2.674288179481158e-07
1.07157310689007e-08
3.408869033035839e-07
1.476025291606537e-08
4.217990306432148e-07
1.949550817732208e-08
5.102972427146437e-07
2.491773631749294e-08
6.062080705173954e-07
3.102991421705784e-08
7.095438194253328e-07
3.785163719762609e-08
8.20803216778315e-07
4.543978048854138e-08
9.410084005927992e-07
5.38655293889092e-08
1.07175112532812e-06
6.319300209986088e-08
1.214730066698145e-06
7.349331022525459e-08
1.371493874378767e-06
8.484725601513713e-08
1.543693681525357e-06
9.734566092352552e-08
1.733130914676163e-06
1.110900479782476e-07
1.941773160902377e-06
1.261928259554737e-07
2.17176705264362e-06
1.427782105783006e-07
2.425459190169903e-06
1.609835214186554e-07
2.705418229045688e-06
1.809602836710563e-07
3.014459895822499e-06
2.028754251979773e-07
3.355675533704361e-06
2.269123814267474e-07
3.73246436359197e-06
2.532711430306187e-07
4.148572086417541e-06
2.821672799279095e-07
4.608140086209926e-06
3.138355812201448e-07
5.115749905446196e-06
3.48536699324175e-07
5.676407055514835e-06
3.865586898513784e-07
6.295573339249798e-06
4.282329754185265e-07
6.979262862439612e-06
4.739402165305258e-07
7.734162757514669e-06
5.240922404613401e-07
8.567709167205749e-06
5.791280024931202e-07
9.488087508894265e-06
6.395151804946359e-07
1.050430028776492e-05
7.057517944735845e-07
1.162624831728139e-05
7.783676691067964e-07
1.286481296912775e-05
8.579227399938147e-07
1.423193932833649e-05
9.450001910348192e-07
1.574071416170628e-05
1.040190851641711e-06
1.740542895192912e-05
1.144062782921858e-06
1.924161336558685e-05
1.257108629280495e-06
2.126601147076944e-05
1.379660284026665e-06
2.349646211432261e-05
1.511764395450773e-06
2.595163653927377e-05
1.653020962095528e-06
2.865060583349548e-05
1.802426757538785e-06
3.161229395553884e-05
1.958335462740385e-06
3.485506494986393e-05
2.118741296773436e-06
3.839697133118878e-05
2.28212115505709e-06
4.225738114168168e-05
2.448917838518788e-06
4.646058433032733e-05
2.620446667817798e-06
5.104125809228572e-05
2.796833000660857e-06
5.603759912574522e-05
2.977588898410895e-06
6.148559135667324e-05
3.162499786245773e-06
6.742417980146877e-05
3.351655013616184e-06
7.389672504924933e-05
3.545465221606471e-06
8.095157795121693e-05
3.744667355159713e-06
8.86426384380681e-05
3.950319495462887e-06
9.702990700087974e-05
4.163790635410356e-06
0.000106180046819139
4.3867459556518e-06
0.0001161669807483893
4.621135383917244e-06
0.0001270725428950654
4.869179712356711e-06
0.0001389872004031053
5.133357872200427e-06
0.0001520108521181634
5.416388831547018e-06
0.0001662537076299493
5.72120823271408e-06
0.0001818372476597975
6.050940691946889e-06
0.0001988952756423839
6.408868523883601e-06
0.0002175750770855356
6.798407759148182e-06
0.0002380387083014087
7.223098520508749e-06
0.0002604644319434576
7.686621433924265e-06
0.0002850482801728697
8.19284644088113e-06
0.0003120056191517156
8.745898638433142e-06
0.0003415723855788511
0.0003740052392036524
2.499136685502467e-10
2.685722652337521e-08
1.002611925657484e-09
8.133721920594822e-08
2.27395995628789e-09
1.381492074028175e-07
4.091946870359785e-09
1.988739373871822e-07
6.493329666031257e-09
2.650274351568443e-07
9.515153923466913e-09
3.378650790518241e-07
1.318376355088962e-08
4.181304210235309e-07
1.750968037782517e-08
5.059713258864375e-07
2.249526028603781e-08
6.012224906165484e-07
2.814948498542634e-08
7.038895947373842e-07
3.449767145149892e-08
8.144550303234828e-07
4.160419154768087e-08
9.33901880507731e-07
4.954979238957092e-08
1.063805524500785e-06
5.84079783501023e-08
1.205871880745476e-06
6.82603927849818e-08
1.361641459956373e-06
7.919867728666354e-08
1.532755397033665e-06
9.132480879153717e-08
1.721004783187093e-06
1.047513224538444e-07
1.928346647256596e-06
1.196012427908258e-07
2.156917132323287e-06
1.360086323915388e-07
2.409051800590148e-06
1.541191507357302e-07
2.687307710727007e-06
1.74090936050611e-07
2.994488110532217e-06
1.960962458799587e-07
3.333670223901563e-06
2.20321567296121e-07
3.708239042212714e-06
2.469662186025639e-07
4.121927435151068e-06
2.762350566160133e-07
4.578871248240713e-06
3.083563559750345e-07
5.083628606141801e-06
3.435934442118816e-07
5.641169967336841e-06
3.822336856473738e-07
6.256933097884372e-06
4.2459022893086e-07
6.936906319238166e-06
4.71023246695696e-07
7.687729739849119e-06
5.219376924315705e-07
8.51679472158836e-06
5.777619902746256e-07
9.432263211190471e-06
6.389545478567682e-07
1.044310773034845e-05
7.060081724295265e-07
1.15591946929058e-05
7.794501447162078e-07
1.279137099707385e-05
8.598397414092658e-07
1.415154973192182e-05
9.477623004602799e-07
1.565279160298801e-05
1.043815841802762e-06
1.730937541098592e-05
1.148586991351261e-06
1.913684221651519e-05
1.262606892946982e-06
2.115199156974791e-05
1.38627905191439e-06
2.337278995603692e-05
1.519767019780864e-06
2.581814857221699e-05
1.662843120535975e-06
2.850752973369169e-05
1.814730705915256e-06
3.146040637127219e-05
1.974035400644631e-06
3.469576025640653e-05
2.138933247802998e-06
3.823207348546372e-05
2.307753234511832e-06
4.208856115656896e-05
2.479957266106594e-06
4.628838030051221e-05
2.657079576265814e-06
5.086413578410735e-05
2.840232438633629e-06
5.585444626557458e-05
3.028925564744465e-06
6.129689823297529e-05
3.22291133754577e-06
6.723019403128634e-05
3.422252543191116e-06
7.36973838464143e-05
3.627351363167241e-06
8.074647913423403e-05
3.838956851256829e-06
8.843103295312965e-05
4.058156870760421e-06
9.681070698466396e-05
4.286361921433763e-06
0.0001059518417718614
4.525288402113868e-06
0.0001159280542711768
4.776941490632224e-06
0.0001268208898100537
5.043600519842057e-06
0.0001387205413773972
5.32780411989889e-06
0.0001517266485215582
5.632331428496856e-06
0.0001659491803246937
5.960178269897735e-06
0.0001815094008215758
6.314526682100304e-06
0.0001985409272331145
6.698713643332782e-06
0.0002171908901269305
7.116203457164166e-06
0.000237621218489748
7.570574778350265e-06
0.0002600100606239457
8.065532797073094e-06
0.0002845533221553111
8.604949246089285e-06
0.0003114662027100766
9.192924047034781e-06
0.0003409844107719834
0.0003733643451167134
2.105396697842644e-10
2.664668685718117e-08
8.485823312112367e-10
8.069917654610253e-08
1.931779566552768e-09
1.370660101599915e-07
3.488607569736446e-09
1.973171093888219e-07
5.555444994474393e-09
2.62960597726165e-07
8.168742443797158e-09
3.352517816024789e-07
1.135454487701288e-08
4.149446185912753e-07
1.512325666369959e-08
5.022026140981107e-07
1.947655859113563e-08
5.968691886822887e-07
2.442134824492757e-08
6.989448050877186e-07
2.997993763354538e-08
8.088964409348855e-07
3.620469314543362e-08
9.276771249919647e-07
4.317025160306373e-08
1.05683996604031e-06
5.09543956129583e-08
1.19808773673593e-06
5.964008253563849e-08
1.352955773038605e-06
6.932100419530553e-08
1.523074475372686e-06
8.010291968771625e-08
1.710222867698557e-06
9.210393672486678e-08
1.916345630220499e-06
1.05454803992391e-07
2.143566265056855e-06
1.202993185834022e-07
2.394207285997201e-06
1.367954796147901e-07
2.670811549692306e-06
1.5511602393934e-07
2.976167566210797e-06
1.754475879911024e-07
3.313338659850506e-06
1.979850742494022e-07
3.685701555954783e-06
2.229113030677894e-07
4.097001206337594e-06
2.504041993575339e-07
4.551378351951304e-06
2.80681402608038e-07
5.053351402893187e-06
3.140024376721727e-07
5.607848932274659e-06
3.506475384409799e-07
6.220287997120542e-06
3.909201565495838e-07
6.89663370113271e-06
4.351776620571916e-07
7.64347223434398e-06
4.838415514408258e-07
8.468130832209034e-06
5.373488065253391e-07
9.378755956113233e-06
5.961400329856593e-07
1.038431650389713e-05
6.606801674123234e-07
1.149465455848735e-05
7.314702833064116e-07
1.272058088119397e-05
8.090503526487081e-07
1.407396966259238e-05
8.93995021471696e-07
1.556784693417778e-05
9.86900870830696e-07
1.721646956164357e-05
1.08836522834555e-06
1.903537785902682e-05
1.198948209512625e-06
2.104140858860594e-05
1.319110283024007e-06
2.325262788256462e-05
1.4491138122347e-06
2.56881450430446e-05
1.588888022029438e-06
2.83677555239511e-05
1.737873951503387e-06
3.131142044185757e-05