/*--------------------------------*- C++ -*----------------------------------*\
| =========                 |                                                 |
| \\      /  F ield         | OpenFOAM: The Open Source CFD Toolbox           |
|  \\    /   O peration     | Version:  v1812                                 |
|   \\  /    A nd           | Web:      www.OpenFOAM.com                      |
|    \\/     M anipulation  |                                                 |
\*---------------------------------------------------------------------------*/
FoamFile
{
    version     2.0;
    format      ascii;
    class       volScalarField;
    location    "1000";
    object      profileRefFieldInversion;
}
// * * * * * * * * * * * * * * * * * * * * * * * * * * * * * * * * * * * * * //

dimensions      [0 0 0 0 0 0 0];


internalField   nonuniform List<scalar> 
11121
(
0.0197079
0.0579507
0.0971278
0.136743
0.176874
0.217688
0.2592
0.301097
0.343186
0.3854
0.427431
0.468935
0.509587
0.549132
0.587363
0.623854
0.658556
0.691547
0.722743
0.75212
0.779668
0.805559
0.829823
0.852529
0.873813
0.893774
0.9124949999999999
0.930032
0.946469
0.961929
0.976517
0.990323
1.00344
1.01593
1.02787
1.03936
1.05048
1.06126
1.07171
1.08187
1.09172
1.10124
1.11039
1.11909
1.12726
1.13481
1.14179
1.14883
1.15574
1.16183
1.16708
0.0185473
0.0566239
0.0959132
0.135644
0.175916
0.2169
0.258569
0.300625
0.342916
0.385349
0.427596
0.469305
0.510134
0.549824
0.588192
0.624816
0.659575
0.692596
0.723805
0.753118
0.780586
0.806388
0.830558
0.85315
0.87429
0.894106
0.912689
0.930114
0.946454
0.961822
0.976342
0.990109
1.00322
1.01574
1.02774
1.03929
1.0505
1.06138
1.07196
1.08227
1.0923
1.10201
1.11137
1.12029
1.12869
1.13648
1.1437
1.15104
1.1583
1.16472
1.17031
1.17505
0.0205536
0.0592469
0.0985347
0.13828
0.178556
0.219514
0.261184
0.303229
0.345453
0.387801
0.42995
0.471556
0.512274
0.551841
0.590078
0.626549
0.661145
0.694004
0.7250450000000001
0.754188
0.781486
0.807124
0.831138
0.85358
0.874569
0.894241
0.912686
0.929994
0.946233
0.9615089999999999
0.975956
0.98967
1.00274
1.01526
1.02728
1.03888
1.05014
1.06112
1.07183
1.08228
1.09248
1.10238
1.11194
1.12107
1.12971
1.13775
1.14524
1.15289
1.16049
1.16722
1.17312
1.17816
1.18236
0.0192272
0.0566871
0.0961441
0.136061
0.176544
0.217743
0.259599
0.301829
0.34431
0.38692
0.429335
0.471184
0.512114
0.551849
0.590206
0.626845
0.661546
0.694437
0.725472
0.754558
0.781818
0.807379
0.831305
0.853665
0.8745540000000001
0.894115
0.912461
0.929684
0.945866
0.9610919999999999
0.975483
0.9891529999999999
1.0022
1.01471
1.02675
1.0384
1.04972
1.06079
1.07161
1.0822
1.09255
1.10262
1.11235
1.12168
1.13053
1.13882
1.14658
1.15452
1.16244
1.16949
1.17567
1.18097
1.18542
1.18909
0.0187266
0.0560888
0.0954496
0.135283
0.175711
0.216865
0.25869
0.300923
0.343435
0.386106
0.428603
0.47054
0.5115690000000001
0.551392
0.58983
0.6265849999999999
0.661371
0.694315
0.725384
0.75447
0.781731
0.807263
0.831148
0.853454
0.874265
0.893738
0.911996
0.929139
0.945262
0.960438
0.974778
0.988413
1.00144
1.01394
1.02601
1.0377
1.04908
1.06024
1.07117
1.08188
1.09237
1.1026
1.1125
1.12203
1.13109
1.13959
1.14758
1.15581
1.16408
1.17144
1.1779
1.18345
1.18814
1.19203
1.19522
1.19783
1.19997
1.20175
1.20327
1.20462
1.20587
1.2071
1.20838
1.20981
1.21148
1.21343
0.0233558
0.0623213
0.101596
0.14134
0.181619
0.222542
0.264195
0.306243
0.348419
0.390703
0.432788
0.474292
0.514889
0.554302
0.592351
0.628637
0.6629890000000001
0.695569
0.7262960000000001
0.755085
0.782046
0.807314
0.830967
0.853056
0.873679
0.893
0.911129
0.928168
0.944207
0.9593159999999999
0.9736089999999999
0.987217
1.00023
1.01275
1.02484
1.03655
1.04798
1.05919
1.07021
1.08103
1.09167
1.10205
1.11213
1.12185
1.13112
1.13984
1.14805
1.15656
1.16516
1.17286
1.17963
1.18546
1.1904
1.19452
1.19791
1.20069
1.20296
1.20484
1.20643
1.20781
1.20908
1.2103
1.21157
1.21298
1.2146
1.2165
1.21871
0.0210383
0.0587535
0.0982721
0.138242
0.178769
0.220001
0.261882
0.304144
0.346642
0.389251
0.431647
0.473426
0.514249
0.553848
0.592021
0.62848
0.662951
0.695562
0.726274
0.754989
0.7819
0.807074
0.830606
0.852592
0.873112
0.89231
0.910331
0.927278
0.943245
0.958315
0.972581
0.986165
0.99918
1.01171
1.02384
1.03561
1.04709
1.05836
1.06945
1.08036
1.09109
1.10161
1.11185
1.12174
1.1312
1.14012
1.14853
1.15725
1.16612
1.17413
1.18119
1.18729
1.19247
1.1968
1.20037
1.2033
1.20569
1.20766
1.20931
1.21072
1.212
1.21321
1.21446
1.21584
1.21743
1.21927
1.2214
1.22398
0.0172421
0.0540858
0.0935037
0.133392
0.173897
0.215185
0.257085
0.299396
0.342101
0.384988
0.427684
0.469805
0.510978
0.550897
0.5893620000000001
0.626219
0.661043
0.693921
0.724855
0.7537239999999999
0.780809
0.806095
0.82969
0.851733
0.872289
0.89147
0.909449
0.926343
0.942254
0.95729
0.971529
0.985078
0.998067
1.01059
1.02273
1.03454
1.04608
1.05741
1.06858
1.07958
1.09042
1.10106
1.11144
1.12151
1.13115
1.14027
1.14886
1.15778
1.16691
1.17519
1.18253
1.18889
1.19431
1.19885
1.20259
1.20565
1.20815
1.21021
1.21191
1.21335
1.21464
1.21584
1.21706
1.21841
1.21995
1.22174
1.22379
1.22627
1.22933
1.23293
0.0196522
0.057674
0.0967807
0.136369
0.176556
0.217495
0.259099
0.301107
0.34344
0.385951
0.428283
0.470066
0.510933
0.550574
0.588795
0.625398
0.660008
0.692731
0.723532
0.752304
0.779305
0.804527
0.828075
0.8500799999999999
0.8706
0.889747
0.9076959999999999
0.924558
0.940443
0.955456
0.969682
0.98322
0.996198
1.00872
1.02087
1.03271
1.04429
1.05567
1.06692
1.07801
1.08897
1.09974
1.11029
1.12054
1.13038
1.13971
1.14851
1.15766
1.16704
1.17563
1.18326
1.18989
1.19557
1.20035
1.20429
1.20751
1.21014
1.21231
1.21409
1.21558
1.21688
1.2181
1.21931
1.22063
1.22213
1.22388
1.22587
1.22827
1.23123
1.23474
1.23891
1.24376
0.0210159
0.0597061
0.0987372
0.138246
0.178319
0.219124
0.260612
0.302489
0.344618
0.386899
0.429006
0.470539
0.511141
0.550528
0.588499
0.624842
0.6592
0.6916909999999999
0.7222730000000001
0.750846
0.777668
0.802731
0.826139
0.848024
0.868449
0.887523
0.905409
0.922222
0.938075
0.953074
0.9673040000000001
0.980858
0.993853
1.00639
1.01857
1.03046
1.0421
1.05355
1.06487
1.07605
1.08711
1.09801
1.10871
1.11913
1.12916
1.13869
1.1477
1.15707
1.16672
1.17559
1.18352
1.19042
1.19635
1.20137
1.20553
1.20893
1.21171
1.21398
1.21585
1.2174
1.21874
1.21997
1.2212
1.22251
1.22397
1.22569
1.22762
1.22995
1.23283
1.23627
1.24035
1.2451
0.0200156
0.0587001
0.0977362
0.137263
0.177344
0.218168
0.259664
0.301542
0.343695
0.385998
0.428126
0.469671
0.51026
0.549612
0.587523
0.6238359999999999
0.658139
0.6905210000000001
0.720994
0.749456
0.7761670000000001
0.80111
0.824391
0.846152
0.866486
0.885478
0.9032750000000001
0.920013
0.935804
0.950758
0.964974
0.978533
0.991537
1.0041
1.0163
1.02822
1.03991
1.05141
1.06281
1.07409
1.08525
1.09628
1.10711
1.11767
1.12786
1.13757
1.14676
1.15635
1.16626
1.17539
1.18359
1.19075
1.19691
1.20214
1.20651
1.2101
1.21302
1.21538
1.21733
1.21894
1.22031
1.22156
1.2228
1.22409
1.22552
1.2272
1.22909
1.23134
1.23414
1.23751
1.24152
1.24618
0.0192722
0.0578543
0.0968579
0.136347
0.176412
0.217229
0.258696
0.300544
0.342709
0.385036
0.427176
0.468733
0.5093220000000001
0.548657
0.586534
0.62283
0.657108
0.689414
0.71982
0.748227
0.774861
0.799712
0.822891
0.844542
0.8647860000000001
0.883692
0.90139
0.918041
0.933755
0.948644
0.962813
0.97634
0.9893189999999999
1.00187
1.01407
1.02602
1.03775
1.04931
1.06077
1.07213
1.08339
1.09452
1.10548
1.11619
1.12652
1.13641
1.14577
1.15556
1.1657
1.17508
1.18353
1.19093
1.19731
1.20275
1.20731
1.21106
1.21412
1.21659
1.21859
1.22024
1.22164
1.2229
1.22414
1.22542
1.22682
1.22845
1.2303
1.23248
1.23519
1.23849
1.24242
1.24699
0.0187824
0.056898
0.0958016
0.135183
0.175164
0.215911
0.257289
0.299076
0.341211
0.383515
0.425652
0.467212
0.507802
0.547139
0.58502
0.621324
0.6556340000000001
0.68794
0.718337
0.7467549999999999
0.773369
0.7981819999999999
0.821305
0.842888
0.8630679999999999
0.881916
0.899545
0.91612
0.931766
0.946593
0.960707
0.974193
0.98714
0.999655
1.01184
1.02378
1.03553
1.04713
1.05865
1.07008
1.08142
1.09264
1.10372
1.11456
1.12506
1.13512
1.14463
1.15461
1.16501
1.17462
1.1833
1.19093
1.19753
1.20316
1.2079
1.21181
1.215
1.21757
1.21963
1.22131
1.22274
1.22401
1.22525
1.2265
1.22787
1.22945
1.23125
1.23337
1.236
1.23921
1.24307
1.24756
0.018369
0.0559729
0.0946911
0.133898
0.1737
0.214294
0.255528
0.297178
0.339214
0.381442
0.423516
0.465032
0.505607
0.54494
0.582817
0.61912
0.65347
0.685814
0.716236
0.744699
0.771342
0.796168
0.819289
0.840861
0.861023
0.8798589999999999
0.897468
0.914004
0.929606
0.9443859999999999
0.958456
0.971916
0.984845
0.997342
1.00951
1.02144
1.0332
1.04482
1.05636
1.06784
1.07924
1.09055
1.10173
1.11269
1.12333
1.13355
1.14325
1.15342
1.16402
1.17389
1.1828
1.19066
1.19748
1.20331
1.20823
1.21229
1.21561
1.21829
1.22042
1.22214
1.22358
1.22487
1.2261
1.22734
1.22868
1.23022
1.23196
1.23401
1.23656
1.2397
1.24347
1.24789
1.25303
1.25888
1.26513
1.27153
1.2778
1.28356
1.2882
1.29113
1.2919
1.29028
1.28657
1.28144
1.27546
1.26899
1.2622
1.25513
1.24785
1.24048
1.23294
1.22499
0.0192319
0.0569843
0.0954864
0.134491
0.174073
0.214439
0.255469
0.29689
0.338689
0.380698
0.422553
0.463863
0.504253
0.543417
0.581131
0.617286
0.651512
0.6837490000000001
0.714083
0.742473
0.769057
0.793835
0.816913
0.838445
0.858571
0.877381
0.89497
0.911482
0.927059
0.941817
0.955869
0.969317
0.98224
0.9947319999999999
1.00691
1.01885
1.03062
1.04227
1.05384
1.06536
1.07681
1.08819
1.09946
1.11053
1.12131
1.13169
1.14158
1.15192
1.16271
1.17282
1.18199
1.1901
1.19714
1.20317
1.20826
1.21248
1.21595
1.21874
1.22094
1.22269
1.22417
1.22547
1.2267
1.22792
1.22923
1.23073
1.23242
1.23441
1.23688
1.23994
1.24364
1.24797
1.25303
1.2588
1.26501
1.27138
1.27763
1.28339
1.28807
1.29105
1.29187
1.29033
1.28667
1.28158
1.27564
1.2692
1.26244
1.25541
1.24818
1.24085
1.23338
1.22548
1.21723
1.20892
1.20074
1.19269
1.18474
1.17693
1.16934
1.16203
1.15511
1.14858
1.14249
1.13692
1.13196
1.12775
1.12422
1.12094
0.020358
0.0584256
0.0968349
0.13574
0.175219
0.215448
0.256339
0.297619
0.33923
0.381038
0.422689
0.46378
0.503935
0.542867
0.580358
0.616299
0.6503100000000001
0.682339
0.712486
0.740707
0.767134
0.7917650000000001
0.814709
0.8361229999999999
0.856143
0.874868
0.892388
0.908844
0.924382
0.939114
0.9531500000000001
0.966592
0.979515
0.992011
1.00419
1.01615
1.02795
1.03963
1.05125
1.06282
1.07432
1.08576
1.0971
1.10827
1.11918
1.1297
1.13973
1.15022
1.16121
1.17155
1.18096
1.18931
1.19657
1.2028
1.20806
1.21244
1.21604
1.21894
1.22122
1.22302
1.22452
1.22584
1.22706
1.22826
1.22955
1.231
1.23263
1.23457
1.23696
1.23994
1.24356
1.24782
1.2528
1.2585
1.26466
1.27099
1.27722
1.283
1.28771
1.29074
1.29163
1.29015
1.28656
1.28152
1.27561
1.26921
1.26249
1.25551
1.24833
1.24107
1.23365
1.22583
1.21764
1.20939
1.20127
1.19327
1.18537
1.17761
1.17005
1.16277
1.15586
1.14934
1.14325
1.13768
1.13273
1.12853
1.12506
1.12188
0.0192321
0.0567806
0.0951804
0.134063
0.173538
0.213776
0.254643
0.29592
0.337571
0.379419
0.421112
0.462236
0.502409
0.541342
0.578824
0.614731
0.648739
0.680745
0.7108409999999999
0.739036
0.765409
0.78997
0.8128339999999999
0.834157
0.854085
0.87273
0.890177
0.906554
0.922019
0.936692
0.950682
0.964089
0.976998
0.989489
1.00167
1.01363
1.02545
1.03717
1.04881
1.06043
1.07199
1.08348
1.09489
1.10614
1.11714
1.12776
1.13791
1.14854
1.1597
1.17024
1.17986
1.18843
1.1959
1.20231
1.20773
1.21224
1.21595
1.21896
1.22131
1.22315
1.22466
1.22598
1.22719
1.22837
1.22963
1.23104
1.23261
1.23449
1.23681
1.2397
1.24325
1.24743
1.25233
1.25796
1.26407
1.27037
1.27659
1.28238
1.28712
1.2902
1.29116
1.28976
1.28624
1.28125
1.27539
1.26903
1.26237
1.25545
1.24832
1.24112
1.23378
1.22603
1.21792
1.20974
1.20169
1.19375
1.1859
1.17819
1.17067
1.16342
1.15654
1.15004
1.14395
1.13839
1.13344
1.12927
1.12585
1.12276
0.0177127
0.0544104
0.09261
0.131306
0.170621
0.210739
0.251477
0.29265
0.334282
0.376144
0.417868
0.459054
0.499318
0.538344
0.575911
0.611899
0.646044
0.6781700000000001
0.708352
0.736656
0.763104
0.787712
0.810598
0.831925
0.851847
0.870484
0.887924
0.9042750000000001
0.919694
0.934315
0.948249
0.961602
0.9744699999999999
0.986939
0.999107
1.01107
1.0229
1.03463
1.04629
1.05794
1.06955
1.08112
1.0926
1.10392
1.11501
1.12574
1.13599
1.14674
1.15805
1.16877
1.1786
1.18737
1.19504
1.20162
1.2072
1.21185
1.21567
1.21875
1.22118
1.22307
1.22459
1.22591
1.2271
1.22825
1.22948
1.23084
1.23236
1.23417
1.23642
1.23923
1.24271
1.24681
1.25164
1.2572
1.26326
1.26953
1.27573
1.28154
1.28632
1.28946
1.29049
1.28917
1.28572
1.28079
1.27499
1.26868
1.26207
1.25521
1.24815
1.24103
1.23376
1.2261
1.21806
1.20996
1.20198
1.19412
1.18634
1.17868
1.17121
1.164
1.15714
1.15066
1.14459
1.13904
1.13411
1.12996
1.12659
1.12358
0.0183648
0.0552057
0.093055
0.131401
0.170372
0.210149
0.250566
0.291437
0.332768
0.374336
0.41579
0.456742
0.496807
0.5356610000000001
0.573089
0.608973
0.643037
0.67511
0.705257
0.733541
0.759984
0.784594
0.807494
0.828839
0.848784
0.8674500000000001
0.884922
0.901303
0.9167419999999999
0.931369
0.945298
0.958634
0.971484
0.983934
0.996085
1.00804
1.01987
1.03161
1.0433
1.05499
1.06665
1.07829
1.08986
1.10127
1.11246
1.1233
1.13367
1.14454
1.15602
1.16695
1.17698
1.18596
1.19383
1.20061
1.20636
1.21115
1.21509
1.21827
1.22078
1.22272
1.22427
1.22558
1.22675
1.22788
1.22908
1.2304
1.23186
1.23362
1.23579
1.23853
1.24193
1.24595
1.2507
1.2562
1.26221
1.26845
1.27465
1.28048
1.28531
1.2885
1.28961
1.28838
1.28501
1.28015
1.27441
1.26816
1.26162
1.25483
1.24784
1.24079
1.23362
1.22604
1.21809
1.21007
1.20218
1.19438
1.18667
1.17908
1.17166
1.1645
1.15768
1.15122
1.14517
1.13964
1.13473
1.1306
1.12728
1.12435
0.0198301
0.0571073
0.0947557
0.13289
0.171626
0.211149
0.251323
0.291936
0.332947
0.374182
0.415305
0.455922
0.495656
0.5341939999999999
0.571327
0.606938
0.640733
0.67257
0.702518
0.73062
0.756916
0.781412
0.804222
0.825499
0.845396
0.864032
0.88149
0.897871
0.913321
0.927967
0.941917
0.955278
0.968151
0.980617
0.992774
1.00473
1.01657
1.02832
1.04004
1.05176
1.06347
1.07517
1.08681
1.09832
1.10961
1.12055
1.13104
1.14205
1.15369
1.16482
1.17506
1.18425
1.19233
1.19929
1.20522
1.21016
1.21423
1.2175
1.22009
1.2221
1.22367
1.22498
1.22614
1.22726
1.22843
1.2297
1.23112
1.23281
1.23491
1.23758
1.24091
1.24485
1.24954
1.25497
1.26094
1.26716
1.27336
1.27921
1.28409
1.28734
1.28854
1.28741
1.28412
1.27934
1.27366
1.26748
1.26101
1.2543
1.24739
1.24043
1.23334
1.22587
1.21801
1.21008
1.20226
1.19455
1.18692
1.17939
1.17204
1.16492
1.15814
1.15172
1.1457
1.14018
1.13529
1.1312
1.12792
1.12507
0.0194231
0.0566177
0.0942511
0.132363
0.171073
0.210567
0.250696
0.291243
0.332181
0.373343
0.414381
0.454896
0.494511
0.532919
0.569905
0.605358
0.639011
0.670693
0.700485
0.72845
0.754602
0.778958
0.801633
0.822782
0.842566
0.861103
0.87849
0.894818
0.910225
0.924845
0.938786
0.9521500000000001
0.965037
0.9775199999999999
0.98969
1.00165
1.01349
1.02525
1.03698
1.04872
1.06046
1.07219
1.08388
1.09545
1.10682
1.11786
1.12845
1.13957
1.15135
1.16264
1.17307
1.18244
1.19069
1.19783
1.2039
1.20899
1.21316
1.21652
1.21918
1.22125
1.22285
1.22414
1.22529
1.22639
1.22753
1.22876
1.23013
1.23176
1.23379
1.23639
1.23965
1.24352
1.24814
1.25352
1.25945
1.26565
1.27185
1.27773
1.28266
1.28598
1.28727
1.28624
1.28306
1.27835
1.27275
1.26664
1.26025
1.25363
1.24681
1.23993
1.23295
1.22557
1.21781
1.20998
1.20225
1.19463
1.18707
1.17962
1.17233
1.16527
1.15854
1.15216
1.14617
1.14068
1.13581
1.13175
1.12852
1.12573
0.0181036
0.0548433
0.0923615
0.130364
0.168979
0.208392
0.248418
0.288888
0.329814
0.370982
0.412031
0.452564
0.492197
0.530619
0.567616
0.6030720000000001
0.636756
0.668454
0.6982350000000001
0.726201
0.752309
0.7766150000000001
0.799246
0.8203279999999999
0.8400339999999999
0.858491
0.875808
0.892074
0.907417
0.921988
0.9358919999999999
0.949232
0.962104
0.9745819999999999
0.986751
0.998712
1.01055
1.02232
1.03406
1.0458
1.05756
1.06933
1.08105
1.09266
1.10409
1.1152
1.12585
1.13708
1.14901
1.16043
1.17101
1.18053
1.18894
1.19622
1.20243
1.20763
1.2119
1.21533
1.21805
1.22017
1.22179
1.22307
1.2242
1.22527
1.22637
1.22756
1.22889
1.23046
1.23242
1.23496
1.23814
1.24195
1.2465
1.25183
1.25773
1.26391
1.27012
1.27604
1.28103
1.28443
1.28582
1.2849
1.28182
1.27721
1.27169
1.26566
1.25936
1.25283
1.2461
1.23933
1.23244
1.22518
1.21752
1.20978
1.20215
1.19462
1.18715
1.17977
1.17256
1.16556
1.15888
1.15254
1.14658
1.14112
1.13628
1.13225
1.12906
1.12634
0.0178211
0.0540626
0.091171
0.128801
0.167054
0.206125
0.245831
0.286005
0.326684
0.367648
0.408532
0.448939
0.488484
0.52685
0.563831
0.599298
0.63303
0.664794
0.694646
0.7226939999999999
0.748865
0.773234
0.79593
0.817052
0.836782
0.855249
0.872568
0.888829
0.904155
0.9187
0.932578
0.945892
0.958744
0.9712150000000001
0.983387
0.995356
1.00721
1.01899
1.03074
1.04251
1.05431
1.06611
1.07787
1.08954
1.10102
1.11219
1.12292
1.13427
1.14633
1.15791
1.16864
1.17833
1.18689
1.19433
1.20067
1.20599
1.21036
1.21387
1.21665
1.21881
1.22045
1.22173
1.22283
1.22388
1.22495
1.22609
1.22738
1.22889
1.23079
1.23326
1.23638
1.24013
1.24463
1.24991
1.25578
1.26196
1.26819
1.27415
1.2792
1.2827
1.2842
1.2834
1.28043
1.27592
1.27049
1.26455
1.25834
1.25191
1.24528
1.23861
1.23183
1.22468
1.21713
1.20949
1.20196
1.19452
1.18714
1.17985
1.17271
1.16577
1.15915
1.15286
1.14694
1.14152
1.1367
1.1327
1.12955
1.1269
0.0180164
0.054086
0.0906772
0.127813
0.165602
0.204204
0.243478
0.283246
0.323509
0.364088
0.404639
0.444767
0.484081
0.522257
0.559094
0.594458
0.628135
0.6598850000000001
0.689751
0.717842
0.744075
0.768518
0.791299
0.812508
0.8323199999999999
0.850863
0.86825
0.88457
0.8999470000000001
0.914527
0.928428
0.941758
0.954623
0.967112
0.979307
0.991299
1.00317
1.01498
1.02677
1.03857
1.0504
1.06225
1.07407
1.08581
1.09737
1.10862
1.11947
1.13091
1.1431
1.15488
1.1658
1.17566
1.1844
1.19201
1.1985
1.20395
1.20844
1.21204
1.2149
1.21711
1.21878
1.22007
1.22116
1.2222
1.22323
1.22433
1.22558
1.22705
1.22889
1.2313
1.23436
1.23806
1.24251
1.24775
1.2536
1.25978
1.26604
1.27205
1.27718
1.28078
1.2824
1.28173
1.27888
1.27448
1.26915
1.26332
1.25721
1.25088
1.24436
1.23779
1.23113
1.22409
1.21665
1.20912
1.20169
1.19435
1.18707
1.17986
1.17279
1.16593
1.15937
1.15313
1.14725
1.14186
1.13708
1.1331
1.13
1.1274
0.0181181
0.0539269
0.0901102
0.126843
0.164225
0.202418
0.241303
0.280702
0.320589
0.360795
0.400988
0.44078
0.479794
0.517711
0.5543090000000001
0.589471
0.622994
0.654617
0.684391
0.712433
0.738642
0.763084
0.785899
0.80716
0.827031
0.845641
0.8631
0.879494
0.894942
0.909589
0.923552
0.936943
0.949863
0.962405
0.974644
0.986675
0.998586
1.01044
1.02226
1.03411
1.04599
1.05789
1.06977
1.08157
1.09322
1.10458
1.11554
1.12707
1.13939
1.15136
1.16249
1.17255
1.18148
1.18926
1.19592
1.20151
1.20612
1.20984
1.21278
1.21506
1.21678
1.21808
1.21917
1.2202
1.22121
1.22228
1.2235
1.22492
1.22671
1.22907
1.23209
1.23574
1.24014
1.24536
1.25119
1.25739
1.26368
1.26976
1.27498
1.27868
1.28044
1.27991
1.2772
1.27291
1.26769
1.26196
1.25596
1.24974
1.24334
1.23688
1.23034
1.22342
1.2161
1.20867
1.20135
1.19411
1.18692
1.1798
1.17281
1.16602
1.15952
1.15334
1.14751
1.14216
1.13741
1.13346
1.13039
1.12785
0.0177722
0.0531833
0.08903949999999999
0.125443
0.162497
0.200376
0.238936
0.278003
0.317587
0.357497
0.397393
0.436896
0.475639
0.513308
0.5496799999999999
0.584637
0.617986
0.649464
0.679115
0.707062
0.733195
0.7575809999999999
0.780374
0.801633
0.821514
0.840151
0.857649
0.874092
0.889591
0.904287
0.918304
0.93175
0.944731
0.957332
0.969627
0.981707
0.993663
1.00556
1.01744
1.02934
1.04127
1.05323
1.06517
1.07704
1.08877
1.10022
1.11129
1.12292
1.13536
1.14751
1.15883
1.16909
1.17821
1.18617
1.19299
1.19872
1.20346
1.20729
1.21032
1.21267
1.21444
1.21577
1.21686
1.21788
1.21888
1.21993
1.22112
1.22252
1.22426
1.22658
1.22955
1.23317
1.23754
1.24274
1.24857
1.25479
1.26113
1.26728
1.27259
1.27642
1.27832
1.27794
1.27538
1.27122
1.26612
1.2605
1.25462
1.24851
1.24222
1.23589
1.22946
1.22267
1.21546
1.20815
1.20093
1.1938
1.1867
1.17968
1.17277
1.16605
1.15962
1.1535
1.14772
1.14241
1.13769
1.13378
1.13074
1.12824
0.0174777
0.0525652
0.0880982
0.124178
0.160926
0.198503
0.236751
0.275509
0.314798
0.354417
0.394035
0.433268
0.471749
0.509175
0.5453209999999999
0.580062
0.61322
0.6445340000000001
0.674038
0.701859
0.7278790000000001
0.752175
0.774904
0.796116
0.815964
0.834587
0.852084
0.868541
0.884064
0.89879
0.912841
0.926327
0.939352
0.952005
0.964354
0.976488
0.988498
1.00045
1.01238
1.02433
1.03633
1.04835
1.06036
1.0723
1.0841
1.09565
1.1068
1.11852
1.13109
1.1434
1.1549
1.16536
1.17466
1.18279
1.18977
1.19564
1.2005
1.20444
1.20757
1.20998
1.2118
1.21315
1.21425
1.21528
1.21626
1.21729
1.21847
1.21983
1.22155
1.22382
1.22676
1.23035
1.23471
1.23989
1.24573
1.25199
1.25839
1.26461
1.27004
1.274
1.27605
1.27584
1.27343
1.26941
1.26444
1.25894
1.25317
1.24719
1.24102
1.23481
1.22851
1.22184
1.21476
1.20756
1.20045
1.19342
1.18643
1.17949
1.17267
1.16603
1.15967
1.1536
1.14788
1.14261
1.13793
1.13404
1.13103
1.12859
0.0174682
0.0522841
0.0874939
0.123253
0.159676
0.196928
0.23486
0.273311
0.312281
0.351583
0.390901
0.429839
0.468035
0.505192
0.541088
0.5755980000000001
0.6085429999999999
0.639663
0.668997
0.696669
0.722559
0.746747
0.769389
0.790533
0.81033
0.828913
0.8463850000000001
0.862832
0.878356
0.893093
0.907165
0.920678
0.933737
0.946431
0.95883
0.971021
0.983093
0.995108
1.0071
1.0191
1.03116
1.04325
1.05533
1.06735
1.07924
1.09087
1.10211
1.11392
1.12661
1.13906
1.15073
1.16137
1.17086
1.17915
1.18629
1.1923
1.19727
1.20132
1.20454
1.20702
1.20888
1.21026
1.21137
1.21238
1.21336
1.21438
1.21553
1.21688
1.21856
1.22081
1.22372
1.2273
1.23164
1.23682
1.24268
1.24899
1.25546
1.26177
1.26733
1.27143
1.27365
1.27361
1.27137
1.2675
1.26266
1.25729
1.25165
1.24579
1.23975
1.23366
1.22749
1.22095
1.21399
1.2069
1.19991
1.19298
1.18609
1.17925
1.17252
1.16595
1.15966
1.15366
1.14799
1.14277
1.13812
1.13427
1.13128
1.12887
0.0172863
0.0517513
0.08661679999999999
0.12204
0.15813
0.195046
0.23265
0.27078
0.309435
0.348431
0.38745
0.426108
0.464039
0.5009439999999999
0.536606
0.570904
0.603658
0.634605
0.663785
0.69132
0.717093
0.741181
0.763741
0.784819
0.8045639999999999
0.823107
0.840548
0.856975
0.872489
0.887227
0.9013099999999999
0.914839
0.927919
0.940645
0.95309
0.965338
0.977473
0.989553
1.0016
1.01366
1.02577
1.03792
1.05009
1.06219
1.07416
1.08588
1.09721
1.10912
1.12191
1.1345
1.14634
1.15715
1.16681
1.17527
1.18255
1.1887
1.19379
1.19793
1.20124
1.20378
1.20569
1.20709
1.20821
1.20922
1.21018
1.21119
1.21233
1.21366
1.21532
1.21754
1.22044
1.22401
1.22836
1.23354
1.23943
1.2458
1.25235
1.25877
1.26446
1.26872
1.27111
1.27126
1.2692
1.26548
1.26079
1.25555
1.25004
1.24432
1.23841
1.23245
1.2264
1.21999
1.21316
1.20619
1.1993
1.19249
1.18569
1.17895
1.17231
1.16583
1.15961
1.15367
1.14806
1.14288
1.13828
1.13444
1.13148
1.1291
0.0171508
0.0512606
0.08577319999999999
0.120857
0.156616
0.193196
0.230467
0.268272
0.306612
0.345295
0.38401
0.422381
0.46004
0.496692
0.532122
0.566206
0.598761
0.629531
0.658555
0.685948
0.7116
0.735584
0.758047
0.779044
0.79872
0.817208
0.834606
0.851004
0.8665040000000001
0.881238
0.895325
0.908866
0.921964
0.934712
0.94719
0.959486
0.971681
0.983824
0.995933
1.00805
1.0202
1.03241
1.04464
1.05683
1.06889
1.08069
1.09211
1.10411
1.11702
1.12974
1.14172
1.1527
1.16253
1.17115
1.17857
1.18484
1.19004
1.19429
1.19767
1.20028
1.20222
1.20365
1.20477
1.20578
1.20673
1.20773
1.20886
1.21018
1.21183
1.21403
1.21692
1.2205
1.22485
1.23005
1.23599
1.24243
1.24907
1.25561
1.26145
1.26589
1.26847
1.26881
1.26693
1.26338
1.25883
1.25374
1.24837
1.24278
1.23701
1.23117
1.22526
1.21898
1.21227
1.20542
1.19864
1.19194
1.18525
1.1786
1.17205
1.16565
1.1595
1.15364
1.14808
1.14295
1.13839
1.13458
1.13163
1.12928
0.0170307
0.0508387
0.0850528
0.119838
0.155303
0.191581
0.228549
0.266049
0.304086
0.342474
0.380886
0.418963
0.456342
0.492726
0.527905
0.561752
0.594081
0.624646
0.653483
0.680706
0.706207
0.730058
0.752399
0.77329
0.792883
0.811303
0.828649
0.845007
0.860477
0.875193
0.88927
0.902813
0.915923
0.92869
0.9411929999999999
0.953522
0.965763
0.977957
0.9901180000000001
1.00229
1.01449
1.02674
1.03902
1.05129
1.06343
1.07531
1.08682
1.09892
1.11194
1.12477
1.13689
1.14802
1.158
1.16678
1.17434
1.18073
1.18604
1.19037
1.19383
1.1965
1.19848
1.19994
1.20106
1.20206
1.20301
1.204
1.20512
1.20643
1.20808
1.21028
1.21316
1.21676
1.22113
1.22637
1.23236
1.23889
1.24564
1.25231
1.25831
1.26293
1.26571
1.26626
1.26458
1.2612
1.25681
1.25186
1.24663
1.24119
1.23555
1.22985
1.22407
1.21792
1.21134
1.2046
1.19794
1.19134
1.18475
1.1782
1.17174
1.16542
1.15935
1.15355
1.14806
1.14298
1.13845
1.13467
1.13173
1.1294
0.0167386
0.0502333
0.0841375
0.118612
0.15377
0.189749
0.226412
0.26361
0.301357
0.339457
0.377587
0.415396
0.45252
0.488662
0.523608
0.557238
0.589365
0.61974
0.648406
0.675469
0.700828
0.724553
0.746776
0.767563
0.787068
0.805413
0.822697
0.8389990000000001
0.854423
0.869106
0.883161
0.896694
0.909805
0.922582
0.9351
0.947453
0.959721
0.971946
0.984147
0.9963649999999999
1.00862
1.02092
1.03325
1.04557
1.05777
1.06973
1.08131
1.09351
1.10664
1.11958
1.13181
1.14308
1.15322
1.16213
1.16983
1.17634
1.18175
1.18617
1.1897
1.19242
1.19444
1.19592
1.19706
1.19805
1.19901
1.2
1.20112
1.20242
1.20408
1.20629
1.20917
1.2128
1.21721
1.22249
1.22856
1.23519
1.24206
1.24887
1.25505
1.25987
1.26285
1.26362
1.26215
1.25895
1.25472
1.24993
1.24484
1.23954
1.23404
1.22847
1.22282
1.21681
1.21035
1.20373
1.19718
1.19069
1.18421
1.17775
1.17138
1.16515
1.15916
1.15343
1.148
1.14297
1.13848
1.13472
1.13179
1.12945
0.0164034
0.0493852
0.0828258
0.116857
0.151582
0.187141
0.223409
0.26023
0.297612
0.335372
0.373194
0.410717
0.447592
0.483514
0.518268
0.551738
0.583722
0.613977
0.642541
0.6695140000000001
0.694804
0.718468
0.74063
0.761363
0.78082
0.799123
0.816369
0.832637
0.84803
0.862688
0.8767239999999999
0.890244
0.90335
0.916127
0.928655
0.9410269999999999
0.953321
0.965576
0.977818
0.990088
1.0024
1.01476
1.02715
1.03952
1.05178
1.0638
1.07545
1.08775
1.10099
1.11405
1.12639
1.13779
1.14808
1.15714
1.16497
1.17161
1.17712
1.18163
1.18523
1.18801
1.19008
1.1916
1.19275
1.19375
1.19471
1.1957
1.19683
1.19814
1.19982
1.20205
1.20496
1.20862
1.21309
1.21843
1.22458
1.23133
1.23834
1.2453
1.25167
1.25671
1.25992
1.26091
1.25965
1.25665
1.25259
1.24795
1.24301
1.23785
1.23248
1.22705
1.22154
1.21566
1.20933
1.20283
1.19638
1.19
1.18362
1.17726
1.17098
1.16483
1.15892
1.15326
1.14789
1.14292
1.13847
1.13473
1.13179
1.12945
0.0158655
0.0479652
0.0807162
0.114091
0.148191
0.183138
0.218833
0.255133
0.29203
0.329353
0.366785
0.403969
0.440569
0.476272
0.510864
0.544223
0.576136
0.606358
0.634911
0.661892
0.687212
0.710916
0.733116
0.753888
0.773388
0.79173
0.809012
0.825309
0.840726
0.855407
0.869465
0.883005
0.896131
0.908927
0.921476
0.933876
0.946204
0.958502
0.970801
0.983139
0.995524
1.00796
1.02042
1.03286
1.0452
1.05731
1.06905
1.08143
1.09479
1.10798
1.12047
1.13201
1.14246
1.1517
1.15968
1.16645
1.17209
1.1767
1.18038
1.18324
1.18537
1.18693
1.18811
1.18912
1.19009
1.19111
1.19226
1.1936
1.19531
1.19758
1.20052
1.20424
1.20877
1.2142
1.22045
1.22733
1.2345
1.24163
1.2482
1.25347
1.2569
1.25813
1.2571
1.25429
1.2504
1.24592
1.24113
1.23612
1.2309
1.2256
1.22022
1.21447
1.20827
1.20188
1.19555
1.18927
1.18299
1.17673
1.17054
1.16448
1.15864
1.15306
1.14775
1.14283
1.13842
1.1347
1.13175
1.12939
0.0154082
0.046581
0.07841289999999999
0.110909
0.144171
0.178302
0.213224
0.248819
0.28506
0.321778
0.358669
0.395386
0.431604
0.46701
0.50139
0.534609
0.56643
0.596625
0.625205
0.652237
0.67765
0.701466
0.723779
0.744675
0.764304
0.782771
0.800166
0.816564
0.832076
0.84685
0.860992
0.874609
0.887807
0.9006690000000001
0.9132749999999999
0.925727
0.938109
0.950473
0.962848
0.975278
0.987764
1.0003
1.01287
1.02541
1.03785
1.05007
1.06192
1.07442
1.08791
1.10126
1.11392
1.12563
1.13627
1.1457
1.15387
1.1608
1.16658
1.17132
1.17511
1.17806
1.18026
1.18189
1.18312
1.18416
1.18516
1.18622
1.1874
1.18878
1.19054
1.19286
1.19586
1.19966
1.20427
1.2098
1.21617
1.2232
1.23054
1.23785
1.24464
1.25014
1.25382
1.2553
1.2545
1.25189
1.24819
1.24387
1.23923
1.23436
1.22928
1.22412
1.21887
1.21325
1.20717
1.2009
1.19467
1.1885
1.18232
1.17616
1.17006
1.16408
1.15832
1.15281
1.14757
1.14271
1.13834
1.13462
1.13166
1.12925
0.0151432
0.0454397
0.0762516
0.10777
0.140088
0.17329
0.207333
0.242096
0.277537
0.313503
0.349708
0.385823
0.42152
0.456497
0.490538
0.523509
0.555142
0.5852270000000001
0.613773
0.640815
0.666305
0.690231
0.712668
0.733723
0.753529
0.772176
0.789747
0.8063129999999999
0.821994
0.836927
0.851218
0.864974
0.8782990000000001
0.891272
0.903982
0.916534
0.929009
0.941463
0.9539339999999999
0.966475
0.979086
0.991756
1.00446
1.01713
1.0297
1.04205
1.05404
1.06668
1.08033
1.09386
1.10671
1.11864
1.12948
1.13913
1.14752
1.15464
1.16059
1.16547
1.1694
1.17246
1.17476
1.17647
1.17776
1.17885
1.17991
1.18102
1.18226
1.1837
1.18553
1.18792
1.191
1.19488
1.1996
1.20524
1.21176
1.21896
1.22647
1.23399
1.24101
1.24676
1.25069
1.25243
1.25187
1.24947
1.24594
1.24179
1.2373
1.23258
1.22764
1.22261
1.21749
1.21201
1.20605
1.19989
1.19377
1.1877
1.18162
1.17555
1.16954
1.16364
1.15797
1.15253
1.14735
1.14254
1.13822
1.13452
1.13152
1.12905
0.0148618
0.0442739
0.0741964
0.104847
0.136312
0.168667
0.201887
0.235847
0.270496
0.305695
0.341177
0.376626
0.411715
0.446151
0.479718
0.5122910000000001
0.543592
0.573423
0.601789
0.628705
0.654147
0.678079
0.7005670000000001
0.721724
0.741665
0.760475
0.778217
0.794967
0.810846
0.825977
0.840462
0.854403
0.867897
0.881022
0.893875
0.906567
0.919175
0.931747
0.944329
0.956989
0.969727
0.982537
0.995381
1.00819
1.02091
1.03341
1.04551
1.05833
1.07219
1.08588
1.09894
1.11109
1.12216
1.13205
1.14066
1.14799
1.15413
1.15918
1.16325
1.16644
1.16885
1.17067
1.17204
1.1732
1.17433
1.17552
1.17683
1.17836
1.18028
1.18277
1.18594
1.18994
1.19478
1.20055
1.20722
1.21461
1.22232
1.23005
1.23732
1.24333