/*--------------------------------*- C++ -*----------------------------------*\
| =========                 |                                                 |
| \\      /  F ield         | OpenFOAM: The Open Source CFD Toolbox           |
|  \\    /   O peration     | Version:  v1812                                 |
|   \\  /    A nd           | Web:      www.OpenFOAM.com                      |
|    \\/     M anipulation  |                                                 |
\*---------------------------------------------------------------------------*/
FoamFile
{
    version     2.0;
    format      ascii;
    class       volVectorField;
    location    "1000";
    object      U;
}
// * * * * * * * * * * * * * * * * * * * * * * * * * * * * * * * * * * * * * //

dimensions      [0 1 -1 0 0 0 0];


internalField   nonuniform List<vector> 
11121
(
(0.02076641601874452 0.00187835799643005 -9.20764432121089e-19)
(0.06238508591316314 0.005638160107797872 -4.515038729977946e-18)
(0.1043801621687651 0.009433276208689953 -1.306461844009159e-17)
(0.1470012532811749 0.01328557327866725 -2.123959755158718e-17)
(0.1903631585382218 0.01720505484028308 -3.059234814943123e-17)
(0.2342894933994527 0.02117574442252817 -3.813087611056618e-17)
(0.2781825570175502 0.0251436736308066 -4.492422323064447e-17)
(0.3210981077734553 0.02902352817024529 -5.450250809128338e-17)
(0.362077135099322 0.0327286351130495 -6.203298689180804e-17)
(0.4004885049529835 0.0362019528661238 -7.301626359136241e-17)
(0.4361276646646493 0.03942500237862193 -8.126817412372163e-17)
(0.4691757073713683 0.04241418386203874 -9.20855319272217e-17)
(0.4999927788719458 0.04520208106442601 -1.032428897881449e-16)
(0.5288580464825782 0.04781396751080699 -1.148679700190839e-16)
(0.5559638728062926 0.05026726035583474 -1.267569908505238e-16)
(0.5814922526924683 0.05257844715853251 -1.369695311869173e-16)
(0.6056192352033282 0.05476348546122092 -1.45196106790825e-16)
(0.6285095993116177 0.05683732060123541 -1.563339396114167e-16)
(0.6503130896096547 0.05881354537081745 -1.641445473888654e-16)
(0.6711647225534146 0.06070442861514831 -1.743530645174911e-16)
(0.6911851568944781 0.06252094940404271 -1.820997560982814e-16)
(0.7104815944515055 0.06427287926356252 -1.873915920751266e-16)
(0.7291489986290323 0.06596889317272403 -1.93074834427981e-16)
(0.7472714126257428 0.06761668989596707 -1.966536082651945e-16)
(0.7649232497603338 0.06922310980398548 -2.003436400034976e-16)
(0.7821704832476692 0.07079424401111807 -2.049739627221654e-16)
(0.7990716943413605 0.07233553072876214 -2.084174215296058e-16)
(0.8156789606625277 0.07385183761836432 -2.097088957984512e-16)
(0.8320385767158821 0.07534752909491457 -2.114370927365069e-16)
(0.8481916018749639 0.07682651820909561 -2.138735645665277e-16)
(0.8641742217850494 0.07829230164019205 -2.158673723312141e-16)
(0.8800179014601497 0.07974797562219439 -2.159782878903012e-16)
(0.8957492872629261 0.08119622815035961 -2.158685165882628e-16)
(0.9113897800989281 0.0826392995096308 -2.158715963303265e-16)
(0.9269546496211418 0.08407889771558145 -2.131366000302079e-16)
(0.9424514771216784 0.08551604640031912 -2.156146560369262e-16)
(0.9578776110022242 0.08695083200566152 -2.137310579600438e-16)
(0.9732162263202518 0.08838200535416829 -2.142784965163849e-16)
(0.9884305978319116 0.08980639136874605 -2.155286310981197e-16)
(1.003456541769551 0.09121809001075844 -2.143951281016724e-16)
(1.018194034356813 0.09260755190460947 -2.113576682137668e-16)
(1.032501229284907 0.0939608314908036 -2.083588540949421e-16)
(1.046197513279169 0.09525967050003691 -2.051934519980527e-16)
(1.059085458509343 0.09648344549636234 -2.043537149852284e-16)
(1.071000648275401 0.09761413268142083 -1.928833119783683e-16)
(1.081888595815581 0.09864467690078609 -1.869834193069889e-16)
(1.091892211822108 0.09958841900082806 -1.780631097887963e-16)
(1.101195822600038 0.1004611112126988 -1.648175973653867e-16)
(1.109863464126942 0.1012691399136148 -1.564712743112064e-16)
(1.117915934851079 0.1020126705438946 -1.431022249736181e-16)
(1.125391367086031 0.1026936462287962 -1.237847611227525e-16)
(0.02071121254299157 0.001713087695559253 -4.200343773637073e-18)
(0.0622230181026904 0.005142173393040013 -1.038400521521676e-17)
(0.1041142504671183 0.008603881523372037 -1.878471912832557e-17)
(0.1466345386848852 0.01211817690402665 -2.433032352472467e-17)
(0.1899003959599819 0.01569433282805391 -3.015317416663881e-17)
(0.2337401629662171 0.01931813139515922 -3.804016961322948e-17)
(0.277563454939897 0.02294083326399111 -4.379224817556412e-17)
(0.320431984226587 0.02648492078253543 -5.246500787934654e-17)
(0.361386820081343 0.02987114608950768 -6.085107122868896e-17)
(0.3997912333593899 0.03304688717862813 -7.104064814618642e-17)
(0.4354333599545041 0.03599464326817248 -8.131868095434148e-17)
(0.4684827230374204 0.0387284583038841 -9.085573979788282e-17)
(0.4992974827108336 0.04127796797005838 -9.838387401363379e-17)
(0.5281613258734795 0.04366666242402756 -1.087331712283906e-16)
(0.555266224720944 0.04591044093565792 -1.183976951164437e-16)
(0.580793393149846 0.04802432197258994 -1.261704783684931e-16)
(0.604918302580382 0.05002285761257188 -1.357994649560257e-16)
(0.6278053839535633 0.05191969414850082 -1.459316966379632e-16)
(0.6496041965196989 0.0537272558799528 -1.547293062468445e-16)
(0.6704496825363978 0.05545676675306387 -1.625434227882838e-16)
(0.6904624934495179 0.05711827809708056 -1.706419448578079e-16)
(0.7097498571671191 0.05872074089893723 -1.759294973007195e-16)
(0.728406772918457 0.06027210564134967 -1.803139683420376e-16)
(0.7465173134163812 0.06177943077455413 -1.839187555440763e-16)
(0.7641559053155884 0.06324898981659763 -1.889952479959491e-16)
(0.7813885135662977 0.06468637040708031 -1.933113925932777e-16)
(0.7982736886052687 0.06609656261935426 -1.96091405047764e-16)
(0.8148634595700245 0.06748403434224752 -2.013763071655104e-16)
(0.8312040671815595 0.06885279383997533 -2.0420649580847e-16)
(0.8473365338516994 0.07020643900636177 -2.05505324116244e-16)
(0.8632970627598094 0.07154819248203889 -2.076834365438057e-16)
(0.8791172511039503 0.07288092121627694 -2.085075164067851e-16)
(0.8948240861561962 0.07420713761264505 -2.09130418178798e-16)
(0.9104396647586086 0.07552897635543657 -2.108396467978018e-16)
(0.9259805324059903 0.07684813709763294 -2.116584521477037e-16)
(0.9414564669447606 0.07816577628083561 -2.084267140594163e-16)
(0.9568684335422051 0.07948232124118181 -2.092822428718375e-16)
(0.9722053253945757 0.08079716880107399 -2.099001628399476e-16)
(0.9874390414996518 0.08210822161673577 -2.093107351064097e-16)
(1.002517605258546 0.08341122646129077 -2.088317972128286e-16)
(1.017356742182369 0.08469893779829893 -2.07275181139255e-16)
(1.031832153969269 0.08596028741962422 -2.04109746540149e-16)
(1.045778033611497 0.08718003608671795 -1.955803680614881e-16)
(1.059001187929611 0.08833977450470393 -1.92518288708316e-16)
(1.071320348414027 0.08942138561471892 -1.871945531482504e-16)
(1.082630978890327 0.09041358815729839 -1.814121124560537e-16)
(1.092980517275622 0.09132017199757432 -1.682540359168864e-16)
(1.102568143002429 0.09215715884511302 -1.624909628254238e-16)
(1.11151897754341 0.09293535400048471 -1.481190220983173e-16)
(1.119846863890478 0.09365475957406062 -1.406139081637553e-16)
(1.127583042472484 0.0943164531384655 -1.293939331539901e-16)
(1.134774287920886 0.09492315931130309 -1.06649092720226e-16)
(0.02065352873618035 0.001551139777260554 -3.085174528527371e-18)
(0.06205324129336383 0.00465610645505973 -9.274105193611608e-18)
(0.1038350774668624 0.007790996167572398 -1.552312475340473e-17)
(0.1462486323173282 0.01097390011452148 -2.186545278535354e-17)
(0.1894121201869682 0.0142133482259348 -2.939681454545109e-17)
(0.2331587139093395 0.01749679478528167 -3.70416675839675e-17)
(0.2769056538255801 0.02078056321504495 -4.619415766681671e-17)
(0.3197210810156273 0.02399475509173196 -5.661003743234807e-17)
(0.3606465533906759 0.02706745246252553 -6.702821489333516e-17)
(0.3990398775232376 0.02995046472924495 -7.882393001257513e-17)
(0.434681745539985 0.0326273424206614 -8.720979466687125e-17)
(0.4677299043798598 0.03510995545455414 -9.44083290417002e-17)
(0.4985402217131434 0.03742504367113974 -1.020083352190932e-16)
(0.527400587773786 0.03959425607286789 -1.107257150585489e-16)
(0.5545024031335596 0.0416319895690308 -1.178670884105633e-16)
(0.5800259873786877 0.04355181872673568 -1.274438717167328e-16)
(0.6041461254312122 0.04536691175694009 -1.343252672516122e-16)
(0.6270268326455125 0.04708963631960845 -1.422296276904411e-16)
(0.6488174788546874 0.04873126859287209 -1.499167779646655e-16)
(0.6696529487014887 0.05030200632899474 -1.551482235268147e-16)
(0.6896539293117607 0.05181099109158351 -1.605261251608061e-16)
(0.7089277437307564 0.05326637159971796 -1.648777355896018e-16)
(0.7275695189862998 0.05467539221161501 -1.700101280709437e-16)
(0.7456634687289059 0.05604449016704982 -1.749499301588863e-16)
(0.7632841591158261 0.05737939163145008 -1.79705278081826e-16)
(0.7804976826921015 0.05868520110296868 -1.846825367784974e-16)
(0.7973626994630602 0.0599664807322819 -1.880505276863577e-16)
(0.8139313289683343 0.0612273189246426 -1.931886874970806e-16)
(0.8302498882765944 0.06247138731509911 -1.976584936237692e-16)
(0.8463594752093582 0.06370198635884455 -1.999764658586971e-16)
(0.8622963925067838 0.06492207902668623 -2.029778835677212e-16)
(0.8780924036460764 0.066134311841548 -2.0538448348701e-16)
(0.8937747979112968 0.06734102108508411 -2.069365462784617e-16)
(0.9093662197343061 0.06854422047790702 -2.073706792601967e-16)
(0.9248841797516602 0.069745562958417 -2.075463368489471e-16)
(0.9403401024471706 0.07094626383979181 -2.075402119610312e-16)
(0.9557376732566464 0.07214696461579591 -2.03456040276634e-16)
(0.9710701309303434 0.07334750556101989 -2.039381159512602e-16)
(0.9863160570441678 0.07454656554550247 -2.023628745707654e-16)
(1.001433271678705 0.07574112802991718 -2.038902511138263e-16)
(1.016350935524029 0.07692576678876865 -2.031331862711235e-16)
(1.030961327744167 0.07809185186538388 -2.000612777370215e-16)
(1.045115380501314 0.07922699498352441 -1.939663686858111e-16)
(1.058629432736597 0.0803153714817591 -1.875565734444037e-16)
(1.07131238926 0.08133982839622843 -1.811645468621993e-16)
(1.083018595403267 0.08228658552952894 -1.784870310375973e-16)
(1.09372177335325 0.08315236942169414 -1.657361157103319e-16)
(1.103599794043642 0.08395080028158154 -1.562923742619788e-16)
(1.112818899331502 0.08469406885526939 -1.452672603438343e-16)
(1.121411170219762 0.08538455283095892 -1.31605769497972e-16)
(1.129400481640106 0.08602254892865159 -1.147255837578768e-16)
(1.136827379256102 0.08660990501004051 -9.406766369199027e-17)
(1.143746030187177 0.08714984580995756 -7.627486225581774e-17)
(0.02058402637277526 0.001389735845178193 -5.517408682019872e-18)
(0.06184889749783701 0.004171799734046742 -1.659563916377601e-17)
(0.1034993370915672 0.006981102680130336 -2.780612932454057e-17)
(0.1457848239234153 0.009833876388296582 -4.031669542288298e-17)
(0.1888253686094655 0.01273789849866736 -5.163043904067176e-17)
(0.2324594022457726 0.015682247534469 -6.267976558501839e-17)
(0.2761125796704073 0.01862823396129087 -7.348481034565332e-17)
(0.3188603351199112 0.02151351719634291 -8.30860545830971e-17)
(0.3597451598098723 0.02427350863336731 -9.140532951240981e-17)
(0.3981192148762617 0.02686450617699267 -9.93852240795116e-17)
(0.4337551962445741 0.02927118386458974 -1.069419944452841e-16)
(0.4667984523471845 0.0315033799148261 -1.132537354084435e-16)
(0.4976022042285435 0.03358496009430525 -1.208917657564801e-16)
(0.5264583118465824 0.03553566186207737 -1.26729913977921e-16)
(0.5535572982804767 0.03736837284231113 -1.330723322811765e-16)
(0.5790783071038182 0.03909522364919206 -1.39191238969718e-16)
(0.6031951901731823 0.04072799727227067 -1.438132245165752e-16)
(0.6260713305647343 0.04227777856037709 -1.476888281542959e-16)
(0.647855717495361 0.04375468935299476 -1.520037177493215e-16)
(0.6686830130124779 0.04516789414399006 -1.556932221287373e-16)
(0.6886738041654087 0.04652561774034397 -1.604747054430302e-16)
(0.7079354052298253 0.04783520033379198 -1.638457521268219e-16)
(0.7265630013570298 0.04910317565135616 -1.671571019667474e-16)
(0.7446409139751687 0.05033535736462086 -1.694215631375739e-16)
(0.762243853041774 0.05153692476341566 -1.725337098190204e-16)
(0.7794380797036512 0.05271250242487434 -1.755014943441589e-16)
(0.7962824389150832 0.05386623127804469 -1.787330684658563e-16)
(0.8128292449235401 0.05500182975495913 -1.826150680808715e-16)
(0.8291250164957684 0.05612264488660262 -1.848820284486566e-16)
(0.845211062477 0.05723169354560043 -1.88964350050858e-16)
(0.861123917296262 0.0583316933123974 -1.91436960393805e-16)
(0.8768956212785765 0.05942508302937619 -1.928295631737189e-16)
(0.8925538305564902 0.06051403146557632 -1.964578545150593e-16)
(0.9081217229476045 0.06160043155261685 -1.982459750386353e-16)
(0.9236176340345778 0.06268587492566935 -1.99480104829866e-16)
(0.9390543048108316 0.06377159752001896 -2.001860469950324e-16)
(0.9544375408849444 0.06485838004343773 -2.003360737232929e-16)
(0.96976397478081 0.06594637842712027 -1.992801757243061e-16)
(0.9850175165814963 0.06703484898982302 -1.983799826866218e-16)
(1.000164057541498 0.06812172846340073 -1.975731566306346e-16)
(1.015144255675417 0.06920304424757227 -1.956010168379412e-16)
(1.02986513806134 0.07027219534523348 -1.929290266614025e-16)
(1.044193272399506 0.0713192961572134 -1.886839842845594e-16)
(1.057955623790816 0.07233103654098413 -1.773972521581525e-16)
(1.070957871582405 0.07329183468250693 -1.758563537907552e-16)
(1.083030088112219 0.07418726142366935 -1.673264575695493e-16)
(1.094100577979437 0.07501030098472043 -1.589805763144708e-16)
(1.104282164458523 0.07576905449010662 -1.493103178498514e-16)
(1.113758068227543 0.07647530655262989 -1.377830195293744e-16)
(1.122605339104537 0.07713504420032752 -1.247313709591492e-16)
(1.130841069893133 0.07774791268042899 -1.101744619359214e-16)
(1.138499539529114 0.07831501901464757 -9.160145269837466e-17)
(1.145629908451757 0.07883885765635881 -8.010474313591476e-17)
(1.152292612627769 0.07932297223380363 -5.013940620239814e-17)
(0.02049496489070947 0.00122926163537225 -3.808933582625748e-18)
(0.06158763624343438 0.003690505568624648 -1.185752892481427e-17)
(0.1030708563939356 0.006176319949555859 -1.908353543956412e-17)
(0.145193856166028 0.008701110619505627 -2.452520411819777e-17)
(0.1880785247951816 0.01127190286016008 -3.225110722914381e-17)
(0.2315689979055628 0.01387934249153766 -4.112749022271224e-17)
(0.2751001504808846 0.01648961640736953 -5.215214555841591e-17)
(0.3177555303449025 0.01904783142806443 -6.277842346491202e-17)
(0.3585789015880324 0.02149668465595152 -7.167834308450885e-17)
(0.3969165026374563 0.02379699607640764 -8.284649470277576e-17)
(0.4325324333663668 0.02593463687691265 -9.370024081402047e-17)
(0.4655585094444819 0.02791754328378315 -1.015526679227567e-16)
(0.4963450946903709 0.02976675588037459 -1.101361026352126e-16)
(0.5251884307772896 0.03150008449196039 -1.178680754448886e-16)
(0.5522780582337883 0.03312892780490133 -1.256798120531048e-16)
(0.5777917802996033 0.03466399260399644 -1.322002529757845e-16)
(0.6019023432002487 0.03611569282697739 -1.388531436446838e-16)
(0.6247723311219302 0.03749384168777451 -1.433784891324384e-16)
(0.6465501917671602 0.03880741348775724 -1.49645169376087e-16)
(0.6673701962476729 0.04006454218439357 -1.542105703047499e-16)
(0.6873526556206014 0.04127253524474619 -1.579678891074948e-16)
(0.7066046936981321 0.04243792080177093 -1.620191419336843e-16)
(0.7252213704951698 0.04356651612100594 -1.653497449712128e-16)
(0.7432869370935986 0.04466350387359506 -1.685104986982186e-16)
(0.7608760822368844 0.04573350828060251 -1.715576548199568e-16)
(0.7780550928873831 0.04678066601963124 -1.749944818364061e-16)
(0.794882886702038 0.04780868963137612 -1.774502764412544e-16)
(0.8114118972887625 0.04882092226408926 -1.794401001649534e-16)
(0.827688810031103 0.04982038339388639 -1.820244482607361e-16)
(0.8437551485115913 0.05080980569234145 -1.852931005646705e-16)
(0.8596477142348659 0.0517916630482055 -1.86295292751172e-16)
(0.8753988780360094 0.05276818950186397 -1.884842913975056e-16)
(0.8910367141101242 0.05374138845456313 -1.907466242435899e-16)
(0.9065849535378894 0.05471303044383264 -1.943844635552698e-16)
(0.92206270687748 0.05568463595369721 -1.948921675251988e-16)
(0.937483861702745 0.05665743646121891 -1.959863037401701e-16)
(0.9528559903274376 0.05763230196047739 -1.965508776289411e-16)
(0.9681785008980038 0.05860961532059199 -1.957819204943202e-16)
(0.9834396462719616 0.05958906470175553 -1.950007507371239e-16)
(0.998611922965442 0.06056931698566024 -1.942029033093751e-16)
(1.013645503471599 0.06154753946239318 -1.913085094010738e-16)
(1.02845998067043 0.0625187744261754 -1.875380267401451e-16)
(1.042936392277737 0.06347527810143541 -1.864894165811232e-16)
(1.056914667557778 0.06440614556661661 -1.83704000685033e-16)
(1.070205503327055 0.06529784650083234 -1.699734463657833e-16)
(1.082626469690807 0.06613655546071438 -1.608739085314143e-16)
(1.09406418467343 0.06691295357231086 -1.52781685209817e-16)
(1.104550019543849 0.06762877437357927 -1.376037771153986e-16)
(1.114278511791941 0.0682956573183315 -1.316795353384467e-16)
(1.123377476316441 0.06892195085071962 -1.185549567001312e-16)
(1.131857898963941 0.06950729667352668 -1.086634497072716e-16)
(1.139748053428483 0.07005217500884607 -8.707317094982155e-17)
(1.147092068332186 0.07055839671774332 -6.816375068921883e-17)
(1.153946688490459 0.07102885018621416 -4.013723946839213e-17)
(1.160377384394453 0.07146722550791323 -1.612331791210862e-17)
(1.166454451273648 0.0718777700556659 2.111567660497166e-18)
(1.172249589749387 0.07226506893288838 3.47882859046145e-17)
(1.177833217283293 0.07263386130791741 7.172135680363085e-17)
(1.183272537079042 0.0729889006107491 1.044237268634682e-16)
(1.188630245699137 0.07333485361880041 1.669622892860902e-16)
(1.193963707404016 0.07367622606548521 2.308621421613061e-16)
(1.199324442632288 0.07401730199388737 2.700299131586515e-16)
(1.204757841069142 0.07436208812308061 3.511163268657589e-16)
(1.210303084431465 0.07471426083812342 4.107029230338257e-16)
(1.215993321682001 0.07507712029977943 4.950998814369508e-16)
(1.221856154735066 0.07545356146951251 5.955192430970716e-16)
(0.02040576356092313 0.001073964824758661 -2.893760755453762e-18)
(0.06132394057624724 0.003224384081751205 -9.794131716596839e-18)
(0.1026356036512964 0.005396582164262423 -1.566132586591826e-17)
(0.144589724508101 0.007603168712111794 -2.16213445015942e-17)
(0.1873100902340154 0.009850402901337993 -2.769593978455925e-17)
(0.2306466724865979 0.0121303889282427 -3.385719476852339e-17)
(0.2740439254472252 0.01441396802357082 -4.145622082126297e-17)
(0.3165940968953398 0.0166534351343045 -5.117512895640756e-17)
(0.3573428275051266 0.01879860828024352 -6.046537664135332e-17)
(0.3956308090789941 0.02081481673195862 -7.021562277439304e-17)
(0.4312136609379112 0.02268921854134673 -7.924414592264289e-17)
(0.464209092868468 0.02442804087355024 -8.756009120557844e-17)
(0.4949645679746509 0.02604960132807819 -9.463719021025034e-17)
(0.5237812282679093 0.0275697964663016 -1.012990988455926e-16)
(0.550847843272777 0.02899859647386862 -1.074811513261355e-16)
(0.5763410520068508 0.03034534615292004 -1.138470921512077e-16)
(0.6004326564927187 0.03161914688859121 -1.198877998775246e-16)
(0.6232846010383227 0.03282859052325712 -1.263917707460952e-16)
(0.6450449475108544 0.03398154783413014 -1.319393587229504e-16)
(0.6658477126692769 0.03508516063123917 -1.3700677860892e-16)
(0.6858130407821567 0.03614585169297618 -1.416173030180876e-16)
(0.7050479396890242 0.03716936422266958 -1.468564764970976e-16)
(0.7236473801809324 0.03816082059448676 -1.516466186851116e-16)
(0.7416955372970915 0.03912478882099896 -1.56018415952322e-16)
(0.7592670313233906 0.04006534914638641 -1.59989949377567e-16)
(0.7764280885467358 0.04098615673962856 -1.645590304265349e-16)
(0.7932375781260514 0.04189049789423255 -1.680779216925466e-16)
(0.8097479053704579 0.0427813383626015 -1.722507362579373e-16)
(0.8260057605127084 0.0436613641540058 -1.761066970397862e-16)
(0.842052723838285 0.04453301471169325 -1.790937090838938e-16)
(0.8579257266902667 0.04539850911514502 -1.808435997114796e-16)
(0.8736573632563071 0.04625986471508243 -1.842579598512195e-16)
(0.8892760460407549 0.04711890733343942 -1.85577720284105e-16)
(0.9048059907040786 0.04797727162824631 -1.872946216064798e-16)
(0.920266996067554 0.04883638924229685 -1.886889762998687e-16)
(0.9356739472477089 0.0496974604948218 -1.896384058328531e-16)
(0.951035907083165 0.05056140087271029 -1.900581983957719e-16)
(0.9663545650214955 0.05142874769589992 -1.870544786194989e-16)
(0.9816216900110698 0.05229950361590606 -1.893011008374864e-16)
(0.9968151280659061 0.05317288510249898 -1.872960616200557e-16)
(1.011892919992559 0.05404694206840278 -1.841429646069164e-16)
(1.026785566925949 0.0549180355211877 -1.796181897848034e-16)
(1.041387777617605 0.05578023240704019 -1.740321518198377e-16)
(1.05555358077943 0.05662483434375638 -1.730628489330244e-16)
(1.069102093127015 0.05744050124343367 -1.557246664735089e-16)
(1.081843246592109 0.05821466922221304 -1.55783751460838e-16)
(1.093629531345137 0.05893694517135293 -1.484042903201823e-16)
(1.104430285748611 0.05960447644659035 -1.400416057822871e-16)
(1.114418544876315 0.06022701154232239 -1.281410269149914e-16)
(1.123756868636304 0.06081322050144584 -1.099590947268109e-16)
(1.132474217146559 0.06136468481802888 -9.875480097643456e-17)
(1.140591890907685 0.0618813115862166 -8.054415910059764e-17)
(1.148148198329617 0.06236426859070113 -6.055890551958646e-17)
(1.155195554613012 0.06281583818554413 -3.761672382457214e-17)
(1.161796655494579 0.06323915445284563 -1.449217229184197e-17)
(1.168020459360893 0.06363797116679279 5.476873429304879e-18)
(1.173938524879976 0.06401645694561511 3.821708198034306e-17)
(1.179622031901059 0.06437901757301641 8.012306602842381e-17)
(1.185139578602618 0.06473015535743862 1.115450462140426e-16)
(1.190555674345379 0.06507436541621155 1.70475824750647e-16)
(1.195929764849307 0.06541605952257536 2.137001483215266e-16)
(1.201315624518129 0.06575950540632911 2.71255107618517e-16)
(1.206761002569087 0.06610877200473607 3.171988552633008e-16)
(1.212307482567826 0.0664676765101911 4.108884391581093e-16)
(1.217990577935342 0.06683973555853318 4.753013558192542e-16)
(1.223840112135837 0.0672281285466407 5.723936124558436e-16)
(1.229880898742058 0.06763568408287721 6.600519579572117e-16)
(0.0203318449121389 0.0009227614204905081 -4.66597679110786e-18)
(0.061102899258716 0.002770119252262367 -1.347334072949154e-17)
(0.1022673097769839 0.004636423659825242 -2.23799353074281e-17)
(0.1440738431042161 0.006532479315725007 -3.154744739858945e-17)
(0.1866481281539058 0.008463735938755736 -4.019973199957909e-17)
(0.2298458418364769 0.01042364474816014 -4.756413637167841e-17)
(0.2731209982267229 0.01238750501567166 -5.608372700452641e-17)
(0.3155748819674177 0.01431459588436246 -6.458835880751955e-17)
(0.3562556598895687 0.01616176053943977 -7.229252305698784e-17)
(0.3944990895847896 0.01789887638520564 -8.04382334311866e-17)
(0.4300526494742983 0.01951449937013471 -8.741218171074211e-17)
(0.4630206011749787 0.02101338989055727 -9.399530684921591e-17)
(0.4937472480315514 0.02241120392522191 -1.000590764982394e-16)
(0.5225378446452434 0.02372184213294103 -1.05839642495104e-16)
(0.5495802563124672 0.02495386513534686 -1.114043773495928e-16)
(0.5750499708865873 0.02611528636516783 -1.163001422440657e-16)
(0.5991179205404713 0.02721392497657066 -1.221396858035416e-16)
(0.6219455354155421 0.0282571792581333 -1.266060500180973e-16)
(0.6436806655147974 0.02925184183672823 -1.317218207209328e-16)
(0.6644572875288604 0.03020408746758088 -1.360257013938707e-16)
(0.6843956266027877 0.03111947938568362 -1.399397547440549e-16)
(0.703602840604912 0.03200300141056862 -1.434199993588468e-16)
(0.722174073189144 0.03285910707182593 -1.475625689402996e-16)
(0.7401936540545314 0.03369177574696752 -1.512456773990053e-16)
(0.7577363122105372 0.03450456798562419 -1.54166654837319e-16)
(0.7748683387160468 0.03530067310026486 -1.573166789826748e-16)
(0.7916486799452308 0.03608294650867313 -1.613543920738438e-16)
(0.8081299384695722 0.03685397962619503 -1.632973606132954e-16)
(0.8243591234101101 0.03761613445038069 -1.676588400965925e-16)
(0.840378115646256 0.0383715878519317 -1.70396029149182e-16)
(0.8562240149670437 0.03912233606717766 -1.731752759390372e-16)
(0.8719294844625443 0.03987019677524187 -1.759085448052508e-16)
(0.8875230269467079 0.04061681022631398 -1.779081621833109e-16)
(0.9030290862390179 0.04136365595434797 -1.791752144880689e-16)
(0.9184679188810211 0.04211205365321206 -1.809210569444265e-16)
(0.9338551840859179 0.0428631452727701 -1.821849644812592e-16)
(0.9492011582036397 0.04361785537711901 -1.829050872821383e-16)
(0.9645093949400071 0.04437682055448555 -1.829991330239876e-16)
(0.9797745318517953 0.04514027095874581 -1.81667563353707e-16)
(0.9949788249454862 0.04590783815282402 -1.793396081540715e-16)
(1.010086961868401 0.04667825822513418 -1.7908419990804e-16)
(1.025038959785999 0.04744894785458376 -1.728574840975419e-16)
(1.039741844442476 0.04821547575346811 -1.683594044856175e-16)
(1.054062791469476 0.04897106191223424 -1.626711430271611e-16)
(1.067829732755889 0.04970643078000411 -1.625802099230003e-16)
(1.080849181179443 0.05041058283693342 -1.503426052007883e-16)
(1.092951705369672 0.05107320357501269 -1.429237117416619e-16)
(1.104067446547791 0.05168918906689136 -1.343854592836859e-16)
(1.114317898485056 0.0522646655860817 -1.227853915061151e-16)
(1.123880271920828 0.05280756159539091 -1.096181067594854e-16)
(1.132819597287195 0.05332157612678432 -9.506945580786743e-17)
(1.141151715018852 0.05380627270143772 -7.829821227855473e-17)
(1.148909532898633 0.05426238281064102 -4.974986619040337e-17)
(1.156141023098756 0.05469169244981695 -3.451186674417694e-17)
(1.162905770720292 0.05509682783248072 -7.466022999600275e-18)
(1.169271017331225 0.05548106679100838 1.89966924368839e-17)
(1.17530784513412 0.05584816455805701 5.105762154457034e-17)
(1.181087938209337 0.05620219114861941 8.385384632874016e-17)
(1.186681104724878 0.05654739570741606 1.203037700322725e-16)
(1.192153536538821 0.05688810335084672 1.56639114236992e-16)
(1.19756666406549 0.05722863851561778 2.326255662443404e-16)
(1.202976435538999 0.05757326407809956 2.744140130590853e-16)
(1.208432886510729 0.05792612634134073 3.41870344545587e-16)
(1.213979933852883 0.05829120036122548 4.239412752782407e-16)
(1.219655395388947 0.05867223603696337 4.765152580830295e-16)
(1.225491271654084 0.05907271139663769 5.585830067526863e-16)
(1.231514305365037 0.05949580345996022 6.571765028198485e-16)
(1.237746735840315 0.05994438707552412 7.235774833454295e-16)
(0.02022713720105446 0.0007657940154623119 -3.988206237395172e-18)
(0.06079501799987868 0.002299344405767931 -1.257155256940083e-17)
(0.1017613002463878 0.003849099137698616 -2.068096813537153e-17)
(0.1433743042335895 0.005424056586879915 -2.944344895906716e-17)
(0.1857615412217441 0.007028834742325053 -3.73156415825748e-17)
(0.2287848675422928 0.008658210975711416 -4.643876865572338e-17)
(0.2719087203854773 0.01029198073846567 -5.497104917353e-17)
(0.3142442293718151 0.01189654677197201 -6.374618121994823e-17)
(0.3548422261927852 0.0134360013752892 -7.154478034684282e-17)
(0.3930328368149337 0.01488499660885312 -7.883610803589888e-17)
(0.4285542487859105 0.01623363269935813 -8.608560148457862e-17)
(0.4614965078806509 0.01748534999007863 -9.325096586100095e-17)
(0.4922000858902792 0.01865307857303345 -1.011304278795032e-16)
(0.5209734635958309 0.01974855554842583 -1.06882659536578e-16)
(0.5480027753091912 0.02077886443695955 -1.125130713008457e-16)
(0.5734616001194313 0.02175063114050797 -1.177320027839541e-16)
(0.597519317368283 0.02267033620463183 -1.230654413655847e-16)
(0.6203362228229496 0.02354412722514186 -1.278390643066148e-16)
(0.6420593811433942 0.02437766226294181 -1.321044489543824e-16)
(0.6628221999777824 0.02517609517935578 -1.365157241756043e-16)
(0.6827444941996109 0.02594407937133088 -1.404174258746439e-16)
(0.7019331153974723 0.02668579322437234 -1.442444856278328e-16)
(0.720482998402566 0.02740498147426699 -1.475151985627972e-16)
(0.7384784858646734 0.02810500662718321 -1.507690037773502e-16)
(0.7559949555149912 0.02878890823032972 -1.53637520622533e-16)
(0.7731009413755826 0.02945947246133965 -1.564644348870207e-16)
(0.7898610080944654 0.03011934028876135 -1.592249382926944e-16)
(0.8063273773671216 0.03077070431178165 -1.617421602922048e-16)
(0.8225387411270908 0.03141526816256076 -1.655478405153173e-16)
(0.8385327162466688 0.03205476928272153 -1.665850424372654e-16)
(0.8543492008389657 0.03269107561828155 -1.685702796286064e-16)
(0.8700251447978099 0.03332598256887666 -1.703893676090288e-16)
(0.885590934281472 0.03396103740868284 -1.720111410689643e-16)
(0.9010716775394636 0.03459760294771633 -1.733872031658441e-16)
(0.9164878796312079 0.03523689465222619 -1.72752887562527e-16)
(0.9318555345849855 0.03587998857257352 -1.750355710250885e-16)
(0.9471856544742062 0.03652780261896214 -1.753981189271468e-16)
(0.9624831793271392 0.03718104846094259 -1.750994253632731e-16)
(0.9777450845854589 0.03784014400732397 -1.732945852507102e-16)
(0.9929573529268152 0.03850506836937741 -1.718733706424204e-16)
(1.008090363134799 0.0391751336078504 -1.694154610408314e-16)
(1.023092322896581 0.03984864825118761 -1.688966273225876e-16)
(1.037880959319924 0.0405224709395214 -1.628232879559413e-16)
(1.05233533621157 0.04119152427087946 -1.584888812600397e-16)
(1.066292970310567 0.04184848394231454 -1.528100398395779e-16)
(1.079561917122053 0.04248408736837773 -1.462735850595033e-16)
(1.09195956247566 0.04308877262177464 -1.384096903940583e-16)
(1.103382547701743 0.04365637356724094 -1.294905409423359e-16)