/*--------------------------------*- C++ -*----------------------------------*\
| =========                 |                                                 |
| \\      /  F ield         | OpenFOAM: The Open Source CFD Toolbox           |
|  \\    /   O peration     | Version:  v1812                                 |
|   \\  /    A nd           | Web:      www.OpenFOAM.com                      |
|    \\/     M anipulation  |                                                 |
\*---------------------------------------------------------------------------*/
FoamFile
{
    version     2.0;
    format      ascii;
    class       volScalarField;
    location    "0.00000121";
    object      betaFieldInversion;
}
// * * * * * * * * * * * * * * * * * * * * * * * * * * * * * * * * * * * * * //

dimensions      [0 0 0 0 0 0 0];


internalField   nonuniform List<scalar> 
44064
(
1.501459550051688
1.489770809460088
1.387328313549208
1.010394856011651
0.4797322654265007
0.1742677430228322
0.07018166366966631
0.06025806623651161
0.05786415482941948
0.05853406697071294
0.0619846249819069
0.06769248445061031
0.07551906778206692
0.08550424209288322
0.09759872967083681
0.1113544962122083
0.1258171815256217
0.139854742491737
0.1526339490897545
0.1637831941414579
0.1732488549202869
0.1811115480071802
0.1874879342867209
0.1925009877436765
0.1962771443272337
0.1989482172573957
0.2006522218205991
0.2015331251441919
0.201739461639464
0.2014212438397375
0.2007278990564811
0.1998064882375226
0.198794252665136
0.1978087148098193
0.1969460743082737
0.1962856536199699
0.1958932798149508
0.1958243777437589
0.1961277143114002
0.1968511071391289
0.1980518341063469
0.1998017520396977
0.2021852727338843
0.2052990276750239
0.2092496818182092
0.2141433536967846
0.2200602367448897
0.2270227725315592
0.2349870428700788
0.2439374213861988
0.2546360149271092
0.2720862702996102
0.3076137488064877
0.3686463021829373
0.4460559155451602
0.5206481083794255
0.5814604004849339
0.6296024087984545
0.6745755824204422
0.7302104752859042
0.8215038155531778
0.9349812749694097
1.066240728962578
1.258002202861442
1.406370755345218
1.467403080642095
1.489256844086903
1.498917131596884
1.501231056208613
1.501644352052272
1.501677208964113
1.501708418653819
1.501717429272774
1.501718683473839
1.501722597183097
1.501724481352632
1.501727002521418
1.501729697645354
1.501732017545381
1.501733679869738
1.501734458960648
1.501734467823251
1.501734045135669
1.501733710112237
1.501733659613494
1.501733868807315
1.501734028527853
1.501734002786158
1.501733870621887
1.501733724877842
1.501733605242261
1.501733522624546
1.501733471910881
1.501733444499447
1.501733431462004
1.501733426052126
1.501733424208621
1.501733423713429
1.501733423630867
1.501733423621647
1.501733423602168
1.50173342356732
1.501733423554524
1.501733423730424
1.50173342435775
1.501733427158614
1.501733429086757
1.39137444812378
1.501734312404846
1.501773069164314
1.502122939908203
1.503590470215285
1.507755743403115
1.517068818469998
1.534194382882595
1.559626279157864
1.588421502362044
1.610711277955751
1.61770680169481
1.606185233640522
1.584690235996311
1.560946580356964
1.532888530665267
1.506116149706889
1.48678603028485
1.479126893812231
1.480163106037734
1.481691197765599
1.47505518781648
1.455029676817154
1.413139807180312
1.347022676746935
1.260058859829294
1.150047796214406
1.010501176584889
0.8690340602886337
0.7574035337436847
0.6897166826216926
0.6615839331835105
0.6563454517190922
0.6562011956253211
0.6550383817833133
0.6521220503728369
0.6484772197303198
0.6433246349578479
0.6368654270244306
0.6290993099801456
0.6199395057645513
0.6095378100897458
0.5980989771561877
0.5858720184152807
0.5731491296795962
0.5605277217312119
0.5484360019539224
0.5372634334669742
0.5281690987796935
0.5210323359053567
0.5135000962279913
0.5038091089284387
0.5017465639668982
0.4930674638446608
0.4862972051113758
0.4818013562417794
0.4794147254893779
0.4795433716066278
0.479951084862618
0.4828176361215688
0.492557581842363
0.5192619869913041
0.5689260877061889
0.6410253684259907
0.7331616793708466
0.8849125392121008
1.080132759135259
1.335694268384851
1.458103744708204
1.4917538738726
1.499881122952873
1.501518425600106
1.501719487681549
1.501718526626956
1.501720918326134
1.501720010796062
1.501724185480068
1.501726974855825
1.501729554351235
1.501731892760879
1.501733600230397
1.501734419373352
1.501734445146857
1.501734024595432
1.501733688623863
1.501733629390168
1.501733833730427
1.5017339970668
1.501733982146655
1.501733861971953
1.501733726603417
1.501733614368749
1.501733534333212
1.501733482908563
1.501733451651316
1.501733434823178
1.501733427349198
1.501733424528707
1.501733423738819
1.501733423600235
1.50173342358539
1.501733423544505
1.501733423464396
1.50173342344248
1.501733423867234
1.501733425320393
1.501733433046659
1.501733475202536
2.063209999257478
1.501715326587226
1.500926109621994
1.493805807086625
1.464053241309566
1.380803642644632
1.202435089566938
0.9179050750969296
0.6277460422605359
0.4456678213058584
0.3711186087289988
0.3569815488773794
0.3413449426355449
0.3353854636702165
0.3399284923233434
0.3522633510233811
0.3687760722732218
0.3866495050499404
0.403963429909215
0.4195253074611202
0.4327387214806596
0.443469052535916
0.4516558410366655
0.4569959156452333
0.4600418224013876
0.4605035853328222
0.4587481810942954
0.4556279348605387
0.4517435527473418
0.4474575016116709
0.443031840355676
0.4385265578275047
0.4338796393726148
0.4289812257298748
0.4237876991249951
0.4182613307692342
0.4124193659475605
0.4063370864160985
0.4001004515994264
0.3938029937808109
0.3875227343542152
0.3813754777883587
0.3754240833016912
0.369766840791359
0.3645014659157527
0.3597528407779785
0.3556682272967849
0.3524305437313805
0.3502473162110045
0.349304064537957
0.3496312646217092
0.3510297437210249
0.353150739212849
0.3556620114050821
0.3584125402122888
0.3615256040491902
0.3653458680013192
0.3701603759588081
0.3759097726927233
0.3824412940522929
0.3923068956339231
0.4140188250165084
0.457841718270971
0.5269591289782759
0.614937828278961
0.7125570446811241
0.8223406294339315
0.983801164580921
1.184000905753962
1.3893572289889
1.470365716336386
1.495329012092249
1.501256982042817
1.501714451039458
1.501719700187577
1.501729408578385
1.501729409956306
1.501730561577711
1.50173168183544
1.501732702870267
1.501733480672705
1.501733879041482
1.501733924024209
1.501733734828149
1.501733566876135
1.501733535635045
1.501733656140789
1.501733766167518
1.501733773930753
1.501733712198847
1.501733631750032
1.501733558036012
1.501733502332744
1.501733465213573
1.50173344370643
1.501733432278762
1.501733426693757
1.501733424426873
1.501733423721908
1.501733423587596
1.501733423575783
1.501733423537129
1.501733423457099
1.501733423435891
1.501733423892142
1.501733425430549
1.501733434059738
1.501732864239374
1.955433617971457
1.501702389297535
1.500349163282951
1.488149763909139
1.43740181900053
1.298753366761202
1.031733940853801
0.717121939900526
0.498060749482408
0.3797577368076316
0.3368299044561202
0.3339761658266278
0.3325090719707913
0.3405169179574206
0.3575764259322621
0.3815753912324723
0.4100494108562477
0.4408259726325683
0.4721590847361945
0.5027176829583144
0.5314718554911406
0.557551684518909
0.5801655579042791
0.5984043486409357
0.6111985920848073
0.6210215895222509
0.6287503773765126
0.6342630730730456
0.638686545841381
0.6418399731205823
0.6437980204085958
0.6445366477046545
0.6444575094396827
0.6422699812185626
0.6389880762045145
0.6347175574377182
0.6295261172601585
0.6239191583988515
0.6170693731091755
0.6094166997452246
0.6006335609636234
0.5897479853775717
0.5772758007553928
0.5635296053975298
0.5488838057443364
0.5334214110847931
0.5173434010239577
0.5008173600182981
0.4839623618306575
0.4668558020289786
0.4496569175075908
0.4326481222517021
0.4161869008712709
0.4006003602008208
0.3861378795654789
0.3730013180402849
0.3614206484467126
0.3516826484627344
0.3440225321058747
0.3384840529782333
0.3347669449759368
0.333033092921907
0.3394593513912358
0.3662914391533645
0.4210712812777018
0.5031545710164235
0.6051946200845481
0.7203643622650128
0.8670211209233595
1.066282860873274
1.297531055408778
1.435751563499035
1.483722923303946
1.499210886805096
1.501673112935091
1.501701575699055
1.501728174115679
1.501729599168973
1.501730950483201
1.501732326789073
1.501733430993028
1.501734043244452
1.501734129471174
1.501733870586199
1.501733627672401
1.501733568859693
1.501733734183455
1.501733892771493
1.501733907339694
1.501733822964473
1.501733712302708
1.501733611132059
1.501733534156283
1.501733482482266
1.501733451503002
1.501733435123662
1.501733427543384
1.501733424607244
1.501733423736277
1.501733423576837
1.501733423565451
1.501733423525492
1.501733423439447
1.501733423411434
1.501733423892088
1.501733425504595
1.501733433810136
1.501730630337636
1.904349449245353
1.501691288409621
1.499854083780881
1.483297881504071
1.41472184937362
1.233885218874385
0.9406163891087507
0.6843427055271287
0.4929252882228447
0.3944990457354591
0.3593467869994328
0.3602236115616136
0.3606263861332847
0.368973648931221
0.3859829831972537
0.4098311703764033
0.4382782894468171
0.4692601314423808
0.5010440122405201
0.5322861098267847
0.5619265452741559
0.5891058380575036
0.612917693616217
0.6321105637084834
0.6458466447868475
0.6578561095515915
0.667816129074976
0.6764685528957729
0.6840879451678386
0.6906791480090423
0.696281021536035
0.7009468821152541
0.704733693778133
0.7076978552011927
0.7098944643052515
0.7113747829767861
0.7121971450012899
0.7122777511035895
0.7115962579998349
0.7097349784915462
0.7069765271832884
0.7034130850800128
0.6983408384131962
0.6921911913079257
0.685618588570758
0.6774925231273954
0.6678126336241359
0.6566681515983187
0.6431446025634501
0.6274969462110811
0.6102584187473453
0.5918320943377355
0.5725483437118112
0.5526411936203451
0.5322417164646572
0.5113884677536772
0.4900902051201745
0.4683541539731162
0.4462159190422121
0.4238912939251557
0.4020100552744856
0.3814096368327283
0.3626661895757858
0.3472051711123975
0.3446161340069123
0.3693375415753594
0.4284405440372607
0.5198365552622418
0.6336508836377667
0.7632089423600551
0.9589442497287177
1.197787756623989
1.392499615213801
1.467927113120295
1.495825088994967
1.501511997710959
1.501696117786677
1.501725537868181
1.501729563728362
1.501731787590908
1.501733449987654
1.501734258080783
1.501734412435699
1.501734049566939
1.501733696638266
1.501733602861213
1.501733827294467
1.501734044322424
1.50173406460573
1.501733950959093
1.501733802900985
1.501733668959438
1.501733567808902
1.501733500326863
1.501733459926637
1.501733438542509
1.50173342869135
1.501733424886744
1.501733423759542
1.50173342355416
1.501733423541245
1.501733423492982
1.501733423385873
1.501733423341839
1.501733423896944
1.501733425857098
1.501733435532328
1.501725433491941
1.874487292195962
1.501691153917493
1.499848058186099
1.483238265780396
1.414485801261251
1.234803602718028
0.9581418747664534
0.7199313737166884
0.5354213551844218
0.4387528691204371
0.3999365824304396
0.3978537924682588
0.3961061686577321
0.4019439973598141
0.4168412525794019
0.4390550830745286
0.466339994144079
0.4966403183604172
0.5282222348947223
0.5597069024125579
0.589937894607323
0.6178668484251462
0.6422401453438251
0.6612125418671757
0.6763035024182502
0.6886423434803052
0.7000926543015972
0.7104703988406027
0.7198463770022806
0.7282564460317542
0.7357491408833727
0.7423861490847062
0.7482311817141238
0.7533461247288454
0.7577872269708514
0.7616051164701113
0.7648449460060358
0.7675444520868067
0.7697343191957392
0.7714388991505274
0.7726710953797364
0.7734162010812119
0.7736364969766153
0.7732838354856165
0.7721016730139704
0.7696191123197378
0.7654154319999638
0.7589756887710988
0.7510343709516641
0.7420304577092999
0.7315667783368008
0.7190985231445904
0.7046874064329386
0.6875347162755855
0.6679298959967339
0.6464465522311802
0.6234740127016258
0.5993233991404574
0.5742202461215837
0.5482186934397064
0.5213251671068299
0.4935543298947093
0.464938242005865
0.4355437786426185
0.4055841377994455
0.378059687491196
0.3699388654075815
0.3997523100500193
0.4720876730230244
0.5794216827177311
0.7051771803022567
0.871492816955631
1.114473865280953
1.353185724992652
1.454632185589298
1.493694035179375
1.501446316703878
1.501707817816894
1.501729532396789
1.50173143400563
1.50173328888755
1.501734417632867
1.501734558321877
1.501734137431106
1.501733733960289
1.501733610893892
1.501733863945192
1.501734116688384
1.501734145698018
1.501734019723644
1.501733853103174
1.501733701461205
1.501733586997897
1.501733510723353
1.501733464943661
1.501733440613526
1.501733429387428
1.501733425048164
1.501733423767201
1.501733423536698
1.501733423523362
1.501733423469898
1.501733423349705
1.501733423294456
1.501733423887887
1.501733426109219
1.501733436936444
1.501717889068299
1.849797248891213
1.501694211899246
1.4999844099415
1.484572810983312
1.42069111395627
1.252359640212277
0.984486582455332
0.7556282772019597
0.5737592903211794
0.4756593520142426
0.4340295573622289
0.430227961270313
0.4265893707005758
0.4299860985360736
0.4435714925936851
0.4646493212979357
0.4910694108241044
0.520787928024473
0.5520559278641588
0.5834566905079221
0.6137783889110997
0.6418819195778197
0.666339800894057
0.6849896246240279
0.6993070784584504
0.7126882970153
0.7249014439003647
0.7362284379890457
0.7466214764688256
0.7561056654673548
0.7647239614364493
0.7725356514029482
0.7796030733416648
0.7859879728348468
0.7917498340666904
0.7969436269164286
0.8016183788757315
0.8058176820285164
0.809579623624971
0.8129354563903162
0.8159039351877416
0.8184771277575704
0.8206214158288548
0.822294310445049
0.8234513147991609
0.8240474909032307
0.8240387095577413
0.8233821874208368
0.8218562616274079
0.8190184636068332
0.8139597415496609
0.8060969499129975
0.7960917122798298
0.7845019735420444
0.7705174995137652
0.7543967110670849
0.7351783192820832
0.7127483990809348
0.6878974032749636
0.6611682237918645
0.632849268543801
0.6030140860759491
0.5716577060449974
0.5387463679753661
0.5042101623593961
0.4679847040677972
0.4300471492654561
0.3993622434650856
0.4026623752913324
0.4562489902159199
0.556335434945222
0.6818635409720859
0.8327156992589394
1.073133106441907
1.330141264690834
1.451066486128136
1.494543617488068
1.501538334344976
1.501720454512146
1.501730918339787
1.501733330802473
1.501734365840992
1.501734622185037
1.501734178288142
1.501733740663971
1.50173360287489
1.501733862309375
1.501734126772975
1.501734159175926
1.501734030624862
1.501733860605198
1.501733706540636
1.501733590011571
1.501733512251915
1.501733465665461
1.501733440916036
1.501733429495638
1.501733425078579
1.501733423763797
1.501733423526359
1.501733423514097
1.501733423459694
1.501733423335971
1.501733423277511
1.501733423875581
1.501733426231428
1.501733437841744
1.501708133101084
1.82971500878702
1.501697676581851
1.50013892448987
1.486086681998274
1.42776695170101
1.272809712534952
1.017633102827935
0.7937966061471009
0.6076581087300823
0.5041962759258495
0.4573603271560377
0.4470170507188526
0.4487549318584916
0.4534630468133585
0.4659440881172833
0.4856258931350838
0.5106979608546576
0.5392688320855428
0.5696634084156019
0.6004694720320438
0.6304783735016625
0.6585100183180584
0.6830808192199143
0.7018950331240429
0.7162059085689193
0.7296963336471137
0.7420092151638756
0.7534574032348582
0.7639920586836149
0.7736320826469583
0.7824175306407292
0.7904103235441288
0.7976767151624319
0.8042825023869136
0.8102910744454741
0.8157622994363952
0.820751146141828
0.8253075494511465
0.8294765039874292
0.8332977603156392
0.8368011971653123
0.8399925463474213
0.8428523786797147
0.8453513835995383
0.8474599653594049
0.8491505893755159
0.8503935421538716
0.8511540175815135
0.8513902966550955
0.8510547479513437
0.8500916213320711
0.8482445088191058
0.8453147990081507
0.8383100621226699
0.8284577430718011
0.8165798067804623
0.8026352025475276
0.7865230498140701
0.7669944950396088
0.7442862151999716
0.7188368811917369
0.6910487017555786
0.6610319757951447
0.6287783505632669
0.5941916946389669
0.5570808400082679
0.5172075348214776
0.474297176479733
0.4328202961798667
0.4202748373531272
0.4615335492226394
0.5576392730756665
0.6841856392768482
0.8327114854782417
1.070521167029627
1.336018790203288
1.461047963750934
1.497717072185049
1.50167052823271
1.501728971787519
1.501733118770336
1.501734486311237
1.501734695042259
1.501734229425862
1.501733764163824
1.501733601366653
1.501733873877981
1.501734157103294
1.501734193865427
1.501734059362217
1.501733880516009
1.501733718238633
1.501733596271232
1.501733515342107
1.501733467006214
1.501733441400222
1.501733429624568
1.501733425090736
1.501733423757396
1.501733423519994
1.5017334235089
1.501733423455406
1.501733423333566
1.501733423274456
1.501733423867609
1.501733426297568
1.501733438856892
1.501695302600876
1.812222500602942
1.501701982938207
1.500330983437487
1.487968887952602
1.436570976107713
1.298210404608545
1.055273752287341
0.8296103994061286
0.6487285913927767
0.5373968777241031
0.4863898690530948
0.474784816603254
0.4765597039779103
0.4802781905601066
0.4917149778638866
0.5103327721125579
0.5344726520071876
0.5623052839367517
0.5921537318724852
0.6225796765782035
0.65233833194758
0.6801997016582126
0.7045906624141568
0.7230417770887957
0.7366762923595714
0.7499593220360634
0.762285161805614
0.7737814502067994
0.7843802576699073
0.7940943949646238
0.8029551382649953
0.8110195921333938
0.8183510837983957
0.8250135423674291
0.8310687545135845
0.8365751547182932
0.8415875675648866
0.8461564351388599
0.8503275100376259
0.8541421022015678
0.857633386020744
0.8608132082094412
0.8636684381195494
0.8661769641258942
0.8683190301732322
0.8700776222726415
0.8714373760284861
0.8723815661524363
0.8728905880699614
0.8729381238966821
0.8724881194191487
0.8714952853832479
0.8699043292197991
0.8675918783884773
0.863962027589816
0.8578537295510817
0.8478850197738852
0.8348552512353566
0.8188942700817783
0.8006115083082099
0.7792540175714446
0.7550521145782172
0.72816599346146
0.6986323995508964
0.666387687898304
0.6312043656968269
0.5927592187531457
0.5505895242138341
0.5041712153875347
0.4571358099372081
0.4391075561719039
0.4791480333131535
0.5783455783393973
0.7058604507350468
0.8630079001490912
1.106277257110658
1.372505080502026
1.478145107735094
1.500448258353423
1.501726972572009
1.50173307524393
1.501734413392569
1.501734791488113
1.501734288759648
1.501733778554461
1.501733596473847
1.501733880302367
1.501734181941853
1.501734223756871
1.50173408432953
1.501733898592354
1.501733730215531
1.501733603217333
1.501733518881592
1.501733468598162
1.501733442017579
1.501733429825533
1.501733425143249
1.501733423759472
1.501733423513065
1.501733423503257
1.501733423450579
1.501733423330857
1.501733423271082
1.501733423869164
1.501733426366498
1.501733440596531
1.501680067259064
1.796444489674707
1.50170620308161
1.500519205371005
1.489814391411221
1.445240691818231
1.323961721986754
1.099691324569058
0.8693396067684716
0.6916166831439657
0.5687543493812679
0.5112817667347276
0.494706189650544
0.4969948890005231
0.4999536308144165
0.5103071982137678
0.527859501499644
0.551146704335444
0.5783075563486383
0.6076625140397779
0.6377118204968026
0.6671406532870684
0.6946459406059338
0.7185758667788338
0.7369909677693733
0.7510559939707604
0.764395489013756
0.7767388211049012
0.7882056991098397
0.7987349671476489
0.8083417122388827
0.8170621893815763
0.8249596084448876
0.832103286070687
0.8385622254535924
0.844402729372536
0.8496869181344751
0.8544726182517832
0.8588136460799642
0.8627597272289722
0.8663566385238181
0.8696446430226943
0.8726491363109433
0.875371673277099
0.8777973739543249
0.8799083680089551
0.8816889016646986
0.8831243214157949
0.8842009357362097
0.8849052059963286
0.8852226513761176
0.8851362441863275
0.8846202479529161
0.8836405226869191
0.8821537818688558
0.8800914619928749
0.8771838842104458
0.8728921299682294
0.8654487240568377
0.8541626456755969
0.8392443408407589
0.8210665942180407
0.8000173270997269
0.7763540935160366
0.7500688995471226
0.7210507791309481
0.6890502192634596
0.6536731854021461
0.6143944456117069
0.5704893010563722
0.5210867640088648
0.4717229832769442
0.4570042410852474
0.5061967571288111
0.6146018613019145
0.7412192737709704
0.921613035564406
1.196744390776527
1.423104549173106
1.492615090887148
1.501532760117845
1.501733024551612
1.501734583604888
1.501734806180205
1.501734319396497
1.501733800788962
1.501733593106359
1.501733881185086
1.501734195740084
1.501734242638298
1.501734101366733
1.50173391078336
1.501733737642252
1.501733607495289
1.501733521123021
1.501733469650607
1.501733442435006
1.501733429950467
1.501733425160983
1.501733423756728
1.501733423508599
1.501733423499458
1.501733423447096
1.501733423331404
1.50173342326845
1.501733423872332
1.501733426410154
1.501733443161743
1.501662989615087
1.78174277775862
1.501709735812987
1.500676773256731
1.491359686973109
1.452515562707043
1.345925492261408
1.140552443564599
0.9049927454282835
0.7335562466882903
0.6060221771866938
0.5423115480728865
0.5237983017376442
0.5236557726138664
0.5250985025302682
0.5332655418117515
0.5491091107609576
0.5710723033736144
0.5971834888812722
0.6256660581494783
0.6549078272912781
0.6834861206086594
0.7099970316426444
0.7326980111427989
0.7521171705667576
0.7659942103048725
0.7793026013828191
0.7915957698174222
0.8029807464758436
0.8134116665630883
0.8229098533757763
0.8315152417446842
0.8392928340131784
0.8463120692740052
0.8526406150836041
0.8583424503310864
0.8634775678992409
0.8681012165648202
0.8722628129160042
0.8760069209736849
0.8793740901318269
0.882400252596013
0.885115517671639
0.8875390692455881
0.8896748260078921
0.8915152950081622
0.8930495335326826
0.89426844495798
0.8951642000946518
0.8957260083247784
0.8959391085318725
0.8957856819713227
0.8952501277173043
0.8943137829098018
0.8929471556980785
0.8911127348113494
0.8887608488887214
0.885820865103028
0.8817997942587372
0.8758040764187264
0.8663188365530298
0.8522758931230429
0.8340694900559957
0.8127186792147464
0.7888702932770977
0.7625314739614947
0.7334734850522083
0.7012546333088662
0.6652640739772807
0.6248420850249022
0.5789380465525802
0.5263795704338924
0.4786523908691854
0.4767153239784871
0.5449924951947275
0.663934826265005
0.7886674093432541
0.9932032747172699
1.311568077104484
1.467768424781087
1.499832002092468
1.501727115091999
1.501734529620323
1.501734951453724
1.501734379142492
1.501733812924399
1.501733587509066
1.501733885678022
1.501734215727539
1.501734266096672
1.501734119982195
1.501733923727011
1.501733745794491
1.501733611899179
1.501733523204525
1.501733470496603
1.501733442728268
1.501733430037486
1.501733425184388
1.501733423756567
1.50173342350437
1.501733423497149
1.501733423445109
1.501733423335745
1.50173342326697
1.501733423876774
1.501733426424282
1.501733446549155
1.501643958579814
1.768801234352952
1.501713154082698
1.500829238612288
1.492855286152915
1.459570639755722
1.367506055290902
1.183185020424663
0.9455358965845096
0.7667423905145176
0.6367453699625225
0.5624303528120442
0.5368731876182038
0.5380786879824092
0.5393085665163302
0.546214857818264
0.5615074561953299
0.5829037490127807
0.608586963993239
0.636779000851029
0.665880742600893
0.6944696562579505
0.7211251661362492
0.7441040951264648
0.7616326070379749
0.7753112053835627
0.7884577138434891
0.8006861585408124
0.812032274819142
0.8224453908291729
0.8319366186606663
0.840539860942255
0.8483163856668977
0.8553349738065179
0.8616641878106958
0.8673698171919059
0.8725119636771802
0.8771447500297042
0.8813184110040533
0.8850773276094175
0.8884590122348435
0.8914949301786996
0.8942121183540804
0.8966317868935978
0.8987650208304635
0.9006121137721881
0.9021681926111615
0.903430023355336
0.9043922158533149
0.9050454100167478
0.9053764675982079
0.9053674192457639
0.9049941931346837
0.9042287611506269
0.9030420149327605
0.9013995390585181
0.8992582832753917
0.8965606023039769
0.8932168795304724
0.8888077352520354
0.8825127493116832
0.8730221672853949
0.8589376195995273
0.8400725635543369
0.8175921157642704
0.7929121956941781
0.7662469848752405
0.7371524150155785
0.7048543492856865
0.6684081105076781
0.6268502058549899
0.5786457150377188
0.5232267233055863
0.4837769181111315
0.5047795640913828
0.5980668324471239
0.7221808582878889
0.8675728780732732
1.116888094376803
1.411724187267214
1.49269189970067
1.501587770785677
1.501734877028458
1.501734907628229
1.501734409221048
1.5017338375085
1.501733584983465
1.50173388830612
1.501734231345826
1.501734285825315
1.501734136911113
1.501733935264333
1.501733752451871
1.501733615509562
1.501733524972289
1.501733471263944
1.50173344300351
1.501733430105751
1.501733425186554
1.50173342375236
1.501733423501595
1.501733423495609
1.501733423443669
1.501733423342469
1.501733423264464
1.501733423881803
1.501733426419553
1.501733450917703
1.50162362931871
1.757400992163886
1.50171654682742
1.500980569340499
1.494340133782539
1.466590183283039
1.389301019170989
1.229503645832093
1.00157063401752
0.8086960124138872
0.6816151343063136
0.5995342005050678
0.5666274267102317
0.5654585382652745
0.5657251956350823
0.5710636879159601
0.5839844234586464
0.6036252172730978
0.6279893186161629
0.6552327719154512
0.6835697438445322
0.7114469110695085
0.7373578050229604
0.7603848367866841
0.776801997740619
0.7905954742355931
0.8036651510223776
0.8159133950843749
0.827263170944101
0.8376733557035784
0.8471580830340217
0.8557458718710506
0.8634921971741845
0.8704610206051475
0.876716872501563
0.8823219680319708
0.8873350796128298
0.8918105758402537
0.8957964080243784
0.8993365748289308
0.9024724176506217
0.905243377624242
0.9076832229036668
0.9098151090262976
0.9116517421910255
0.9131970268390586
0.9144513521622455
0.9154150713337871
0.916089759646964
0.9164683534857917
0.9165295833431552
0.9162452907783644
0.9155834636867729
0.914513422910172
0.9130047700980725
0.911023455401694
0.9085313323678481
0.9054846402674988
0.9018331014699335
0.8975052114294412
0.8923253968557358
0.8855920577191327
0.8757111695228939
0.8610798800766548
0.8415463286950147
0.817974117069919
0.7920369044551114
0.7643740544384313
0.7345600826834332
0.7015870301276588
0.6642766847603231
0.6210891146339917
0.5698008201597211
0.5146548142489148
0.4943584669542871
0.5485756553305895
0.6637285574717871
0.7829234357611048
0.9657200093819706
1.305142615597693
1.47335078962186
1.500729054298198
1.501734626287224
1.501735203937261
1.501734465725503
1.501733840616969
1.501733578855449
1.501733889220091
1.501734244175199
1.501734301593694
1.50173414936563
1.50173394396082
1.501733757956895
1.501733618411311
1.501733526283535
1.501733471754944
1.501733443153414
1.501733430144089
1.501733425197811
1.501733423751203
1.501733423498712
1.501733423494711
1.501733423442541
1.501733423350644
1.501733423259519
1.501733423887094
1.501733426401834
1.5017334563579
1.501601388708442
1.747455739915175
1.501719060028552
1.501092671676674
1.495440324533107
1.471800325325412
1.405653391044055
1.26599556561611
1.052655910825515
0.8471787260968566
0.7159167054952996
0.6328605083829274
0.5941512009574735
0.5885181959610878
0.5859467330449819
0.589936939371299
0.6014142545869455
0.6208235401204217
0.6446993225262917
0.6713110000557285
0.6989465236558962
0.7260559797396093
0.7510824073649766
0.7733306376578372
0.7891278886927504
0.803133794834284
0.8161365225194864
0.8282643072791386
0.8394584308815111
0.849721143010871
0.8590712538118443
0.8675357012419888
0.8751672067469572
0.8820302942687009
0.8881874537975843
0.8936978624699902
0.8986177111209106
0.9029992828021884
0.906891031942947
0.9103367738507189
0.9133750337706942
0.9160384328219013
0.9183551619356478
0.9203505060571761
0.9220411465801395
0.9234360563618058
0.9245413328945618
0.9253599171859241
0.9258892167606176
0.9261179222492707
0.926024232214578
0.9255755115098705
0.924734324819027
0.9234585149156068
0.9217065460060556
0.9194414338502014
0.9166279050837212
0.9132306519178933
0.9092148351281776
0.9045488548857255
0.8991736503971964
0.8929929365205219
0.8850964809238495
0.8741340522572424
0.8584415031472228
0.8381559485727473
0.8137578523812387
0.7867761795143298
0.7582818781549151
0.7276938239220146
0.6937672753899927
0.6550970447227825
0.6093369299335325
0.5544432899569003
0.5082295324056665
0.5207731280924565
0.6123770712226366
0.7350000818328171
0.8762672217106358
1.136884283535312
1.433275818596674
1.497389488296948
1.501723132830249
1.501734885316684
1.501734515883129
1.501733870445923
1.501733576170378
1.501733890424827
1.50173425652875
1.501734317347523
1.501734162676962
1.501733952686022
1.501733762696119
1.501733620843952
1.50173352740084
1.501733472203624
1.501733443295692
1.501733430167587
1.501733425189018
1.501733423746613
1.501733423497054
1.501733423494442
1.501733423441329
1.501733423360534
1.501733423252126
1.501733423891455
1.501733426376479
1.501733462926498
1.50157825785309
1.738700351020312
1.50172136997785
1.501195709541262
1.496451679045693
1.476593681656069
1.420782213197447
1.300720867168469
1.106043843694542
0.8930384712447845
0.7440499892309032
0.6605066936947187
0.6161144756897153
0.60901575617485
0.6116694388828284
0.6168265065247768
0.6286975710954024
0.6459274412485692
0.6694119807366197
0.6950274044084088
0.7213670575709861
0.7469770126728006
0.7716864972425107
0.7924776207850621
0.8072031698775703
0.8205778635394815
0.8332049890864508
0.8450854183149139
0.8560016726938634
0.8659362983652036
0.8749385767361707
0.883047209706343
0.8903140552036046
0.8968038170073811
0.9025807826745557
0.9077043232368388
0.9122284266408839
0.9162025675492318
0.9196725404184899
0.9226784909831842
0.92525857708139
0.9274523921674831
0.9292936122810962
0.930808522283082
0.9320231562479738
0.9329617618092302
0.9336430378642495
0.9340770005508353
0.9342587828421579
0.934166533130001
0.9337614607988158
0.9329947465374839
0.9318160693360229
0.9301777198063415
0.9280299958568559
0.9253231921532271
0.9220205667043789
0.9181067097866714
0.9135773742616229
0.9084231875564641
0.9026320768926928
0.896191155675958