/*--------------------------------*- C++ -*----------------------------------*\
| =========                 |                                                 |
| \\      /  F ield         | OpenFOAM: The Open Source CFD Toolbox           |
|  \\    /   O peration     | Version:  v1812                                 |
|   \\  /    A nd           | Web:      www.OpenFOAM.com                      |
|    \\/     M anipulation  |                                                 |
\*---------------------------------------------------------------------------*/
FoamFile
{
    version     2.0;
    format      ascii;
    class       volScalarField;
    location    "0.00000121";
    object      k;
}
// * * * * * * * * * * * * * * * * * * * * * * * * * * * * * * * * * * * * * //

dimensions      [0 2 -2 0 0 0 0];


internalField   nonuniform List<scalar> 
44064
(
8.252179672631679e-07
2.292484563598604e-05
0.0001510215828545334
0.0005264134329824429
0.001293147622558813
0.002473966442353079
0.00386377314785623
0.005179754232432789
0.006289031038345471
0.007197267954048417
0.007918040964661033
0.008477695476036662
0.008905462577154724
0.009227889796173085
0.009466965400870954
0.009640075824431875
0.009760648509850848
0.009838937158627411
0.009882736883812521
0.009897968688356261
0.009889133475782958
0.009859655827834945
0.009812141281056775
0.009748568289580047
0.00967043186526423
0.009578851894472842
0.009474656007491408
0.009358444464161177
0.009230642224237794
0.009091541314575707
0.008941335386561859
0.008780147882485007
0.008608055044594911
0.00842510487737873
0.008231333036422971
0.008026776468229593
0.007811485495481932
0.007585534962134646
0.007349035036874109
0.00710214230619032
0.00684507180064991
0.006578110424104123
0.006301631590797125
0.00601610931177927
0.005722127200888515
0.005420374250980683
0.005111616918455675
0.004796641503282319
0.004476181683824954
0.004150895194436194
0.003821537863916875
0.003489608915436932
0.003158694092100446
0.002835664901275692
0.002529775526640964
0.002247999450544884
0.001985070696548023
0.001732176316587579
0.001487934811773913
0.001254116562511139
0.001032604746827768
0.0008257454854226366
0.0006364550371090533
0.0004680712224953071
0.0003239229512236641
0.0002067511075933636
0.0001182285694793005
5.854038350328958e-05
2.45815015563609e-05
8.90276866387784e-06
2.910535180384483e-06
9.122891237882611e-07
3.082998937377675e-07
1.401803521838747e-07
9.694129985450977e-08
8.667783468060284e-08
8.443461837089256e-08
8.398438916562859e-08
8.390163732822258e-08
8.38876992429109e-08
8.388549692899052e-08
8.388511001987342e-08
8.388497526560989e-08
8.388486961798048e-08
8.388476514732344e-08
8.388466023457166e-08
8.388455304673811e-08
8.388445523186777e-08
8.388434628925444e-08
8.388423571221089e-08
8.388414160814453e-08
8.388404787525329e-08
8.388395971553128e-08
8.388387244099617e-08
8.388379832964199e-08
8.388374034897144e-08
8.388368150722759e-08
8.388361549534733e-08
8.388357766995473e-08
8.38835562390486e-08
8.388353320735283e-08
8.388351790468216e-08
8.388351227545281e-08
8.388416630209657e-08
8.420125797463452e-08
1.789523054679441e-07
2.005600768344791e-05
0.002457701772602469
2.124089697635955e-08
5.901089830149346e-07
3.891446584053961e-06
1.368998989420563e-05
3.490918341073948e-05
7.344549679815493e-05
0.0001357136248242095
0.0002277008838043937
0.000353749670007464
0.0005156752242528324
0.0007126752070147817
0.0009418285439048566
0.001198631590040958
0.001477422039621973
0.00177174051519185
0.002074631458390397
0.002379204948703528
0.002679240268916933
0.002969392676314821
0.003244886777260695
0.003501288444722974
0.003734870881260403
0.003943191945917364
0.00412527106893463
0.004281821599605224
0.004415800156805641
0.004529043124176868
0.004621910494473973
0.00469617480810675
0.004754191801241548
0.004798167219063265
0.004829902126024394
0.004850759078429339
0.004861713321387883
0.004863432233514295
0.004856345076414303
0.004840697214253846
0.004816590243577841
0.004784013949946708
0.004742871823891191
0.004693002225451007
0.004634196831582083
0.004566217422207653
0.00448881189158376
0.00440173019818293
0.004304741154898853
0.004197650751207626
0.004080323068000566
0.003952706417002128
0.003814866830431813
0.003666465329818508
0.003506573462912926
0.003334388851312761
0.003149834310132825
0.002953782416283019
0.002748109482608313
0.002535501003512434
0.00231902122424853
0.002100828220061908
0.001880035490025472
0.001655964348949878
0.001430241969980352
0.001205012422119283
0.0009832163726269339
0.0007691665522347464
0.0005687540060993749
0.0003887212317776654
0.0002364094460018588
0.0001202988460261303
4.685910132482486e-05
1.317555041937516e-05
2.979634057931759e-06
6.696031129516494e-07
1.925538984029441e-07
9.478147878209087e-08
7.475316343357981e-08
7.073104141699528e-08
6.995668390512767e-08
6.981570763641978e-08
6.979095489246945e-08
6.978590118039263e-08
6.978382803606634e-08
6.978207928375956e-08
6.978027533233082e-08
6.977837079414523e-08
6.977636664596206e-08
6.97742681383253e-08
6.977209548418051e-08
6.976987433790443e-08
6.976756331905863e-08
6.976517218599347e-08
6.976274968071306e-08
6.976033023160339e-08
6.975792670915464e-08
6.975555132448968e-08
6.975328189605928e-08
6.975108242518458e-08
6.974903782464749e-08
6.974748521887504e-08
6.974616418567433e-08
6.974510983646218e-08
6.974439231735132e-08
6.974409063908864e-08
6.974780725056289e-08
7.108565855424221e-08
3.721367338569582e-07
4.531541225192365e-05
0.003568799292880666
3.027041332924963e-07
8.409560148684276e-06
5.543815026954578e-05
0.0001944807861859679
0.0004902857790044334
0.0009998797993504304
0.001732112446465828
0.002612116347095183
0.003511964252686201
0.004331834452246153
0.00503799884153205
0.005638148890936496
0.006139530267502242
0.006553882010224065
0.006894568832750013
0.007174351836203853
0.007404338957211798
0.007593703004068409
0.007749789595679217
0.007878398412928551
0.007984104680397014
0.008070501448689019
0.008140360601230173
0.008195768217630843
0.008238242356261487
0.008268867248922295
0.00828842804174373
0.00829750410720367
0.008296527054314332
0.008285814566295735
0.008265590349070238
0.008235995813133079
0.008197097511959952
0.008148892726033381
0.008091314504617636
0.008024236778826075
0.007947479939370828
0.007860817220698665
0.007763982244686177
0.007656678020109309
0.007538587321379732
0.007409383798267825
0.007268743021396537
0.007116353382489175
0.00695192731287793
0.006775213442614303
0.006586010178836988
0.006384180740023993
0.006169668934966526
0.005942514232702885
0.00570286491693148
0.005450992761711957
0.005187295089862046
0.004912256957271775
0.004626450681289903
0.004330691108061981
0.004026227687671356
0.003714730859083304
0.003397979631313991
0.003077424177403223
0.002754146928900246
0.002429507260014869
0.00210619325312732
0.001789231057183809
0.001485569621906414
0.001197888923439547
0.0009250615458130453
0.0006705175975375011
0.0004420774714706992
0.0002514046214568006
0.0001139953396034624
3.737443787566817e-05
8.616026107506063e-06
1.61371193082899e-06
3.124665485241284e-07
9.855311641331353e-08
6.581475790345417e-08
6.107052122277962e-08
6.041198638484489e-08
6.032283615245476e-08
6.030994193115367e-08
6.030679988187436e-08
6.030476385266499e-08
6.030275690194121e-08
6.030065320936018e-08
6.029844344798763e-08
6.029612798040573e-08
6.029372190687222e-08
6.029122479999403e-08
6.028862922925971e-08
6.02859595293159e-08
6.028323620735944e-08
6.028048565132198e-08
6.027772086485735e-08
6.027495400905397e-08
6.027233454052247e-08
6.026978105963902e-08
6.02673539291579e-08
6.026537988647214e-08
6.026366956062085e-08
6.026228089661084e-08
6.026131060125821e-08
6.026087079021295e-08
6.027016231068904e-08
6.32445969621215e-08
6.34341975500725e-07
6.902361135218157e-05
0.004077183191337406
2.736860021400244e-07
7.603438245491748e-06
5.01279870622969e-05
0.0001759273057375213
0.0004440670029462026
0.0009077660911175259
0.001577303601999488
0.002385895957673463
0.003217277498293645
0.00397897776209321
0.004637937901430512
0.005199673990822488
0.005669643565636381
0.006058000669407949
0.006376861358090033
0.00663812444369446
0.006852397462405034
0.007028658462920744
0.007174298755340449
0.007295306345055154
0.00739647678474578
0.007481620852078693
0.00755374092488589
0.0076151563516106
0.00766754922698594
0.00771207641369653
0.00774933525524788
0.007779709486294844
0.007803509232081859
0.007820980377394853
0.007832313001486502
0.007837648909150171
0.007837088845281384
0.007830698565718582
0.007818516063060712
0.007800558561475375
0.007776830161262989
0.007747330823344616
0.007712066182227311
0.00767101026484565
0.007623918265839432
0.007570352787847777
0.007509655373751404
0.007441016442009072
0.007363520042799208
0.007276171983937535
0.00717791745336955
0.007067651173246754
0.006944219021492831
0.006806407052858379
0.006652916847549266
0.006482338700714071
0.006293160475437632
0.00608386656365038
0.005853104841833949
0.005599813651471642
0.005323308570183192
0.005023401575328868
0.004700559443020943
0.004356077810467975
0.003992188905241133
0.003611935028356105
0.003219013361099407
0.002818085096237572
0.002415157428125305
0.002017990314200572
0.001636944859720566
0.001284288728323491
0.0009607114267406138
0.0006630649460959935
0.0004013529837241639
0.0001973784272881171
7.069759545925403e-05
1.677017936446061e-05
2.87483143256323e-06
4.570912221114662e-07
1.061966581909285e-07
5.991523416149345e-08
5.426592217182011e-08
5.36224051221963e-08
5.355216741513936e-08
5.354327520418189e-08
5.354047153995932e-08
5.35381452304968e-08
5.353575484020205e-08
5.353325447248131e-08
5.353064317780356e-08
5.352793570324105e-08
5.35251309080134e-08
5.352227467767566e-08
5.35193609728244e-08
5.351639722303966e-08
5.351340711956399e-08
5.351040563693068e-08
5.350740794602054e-08
5.350453821382439e-08
5.350173748117316e-08
5.349906127298664e-08
5.349679976732737e-08
5.349484432960767e-08
5.349326139456106e-08
5.349215783756647e-08
5.349168428120062e-08
5.351069902733244e-08
5.892356092865532e-08
9.651867812938545e-07
9.158660404143944e-05
0.004474549488302177
2.383725224107937e-07
6.62239831801412e-06
4.366363149671482e-05
0.000153312008342539
0.0003875831985508423
0.0007951682796596053
0.00139071425149077
0.002123518996200727
0.002893518404928758
0.003612500886166986
0.004242249466452126
0.004783740344679772
0.005241084178170158
0.005622278505917165
0.005937672869665243
0.006197913763914175
0.006412772285392189
0.006590679398523553
0.006738666821116724
0.006862499751670232
0.006966875626861361
0.007055617826870779
0.007131817800295581
0.00719788067997141
0.007255549361964937
0.007305883700340827
0.007349443223075593
0.007386694985707761
0.007418026016441793
0.007443753391978323
0.007464132561984758
0.007479364204669478
0.007489599875498077
0.007494946677738881
0.007495471152273303
0.007491202547053329
0.007482135608692864
0.007468232920759136
0.007449426954894246
0.007425621571791531
0.007396693680037356
0.007362495579689858
0.007322858272622149
0.007277597521385044
0.007226522986501858
0.00716944987892268
0.007106215212577167
0.007036406421153058
0.006959199161536895
0.006873387790818226
0.006777450674318924
0.006669635263990449
0.006548026807286763
0.006410611412497153
0.006255333597110222
0.006080143603808688
0.005883031195848426
0.005662043750878093
0.005415286777479125
0.005140915950155191
0.00483717744860346
0.00450268684187325
0.004137060908267673
0.003741568192182674
0.003319823891737314
0.002878620351126582
0.002428136894464398
0.001982388675528048
0.00155876364826216
0.001174856790259343
0.0008270627219474475
0.0005129198819519373
0.0002577143336810468
9.258370730150405e-05
2.08210831986857e-05
3.126745267286647e-06
4.238170815692702e-07
9.009516240909869e-08
5.275601568682378e-08
4.889259327086037e-08
4.851990016212702e-08
4.848463636383346e-08
4.84796353391581e-08
4.847705825421061e-08
4.847455347206544e-08
4.847194463202897e-08
4.846921769473182e-08
4.846638464494435e-08
4.846344345925315e-08
4.846044115298657e-08
4.845738139774665e-08
4.845426845945713e-08
4.845112130500989e-08
4.844795652676212e-08
4.844479243454955e-08
4.844173778719457e-08
4.843874993925601e-08
4.843588281441193e-08
4.843340142679567e-08
4.843125311930305e-08
4.842951131773194e-08
4.842828977087887e-08
4.842778946640715e-08
4.846147281582415e-08
5.711077786583626e-08
1.350469831294764e-06
0.0001135094951297406
0.004871678587270284
2.060629664614421e-07
5.724802094143067e-06
3.77480622174592e-05
0.0001325981516146852
0.0003357351775680713
0.0006915132313436005
0.001218651679639264
0.001881593280662775
0.002596194308279643
0.003278898760969688
0.003886104071658265
0.004412159158891225
0.004860536379477181
0.00523721879301845
0.005550884596223108
0.005811033525708156
0.006026717178502424
0.006205945748688435
0.006355525926319017
0.00648112285129321
0.006587413007732357
0.00667824632237775
0.006756758980239755
0.006825376580632667
0.006885862236805955
0.006939163271562445
0.006985888337039262
0.007026550123244952
0.007061578600121532
0.007091331883558523
0.007116105131484216
0.007136137796939025
0.007151619518989473
0.0071626948955647
0.007169467341914932
0.007172002205008165
0.007170329274496386
0.007164444805909696
0.007154313154694287
0.007139868105578978
0.007121013970874132
0.007097626514535058
0.007069553757517529
0.007036616716179837
0.006998609943193869
0.006955301691860829
0.006906433561649468
0.006851719100845212
0.006790844432976471
0.006723473985139363
0.006649264037726017
0.006567886761514826
0.006478600135372939
0.006380009321536369
0.006270178762384141
0.006146786729140803
0.006007270259652727
0.005848940294527077
0.0056690573649041
0.005464865849855528
0.00523360198651839
0.00497250094337367
0.004678823745021252
0.004349919909591233
0.003983436387331884
0.003578146439599266
0.003136238309813886
0.002666543547729351
0.00218629767141053
0.001719809350151938
0.001290961746091887
0.0009048017782774805
0.0005580252307033943
0.0002730680216904081
9.128950699723003e-05
1.79068776968475e-05
2.275340801390729e-06
2.751787134519001e-07
6.633929264401036e-08
4.646344584637346e-08
4.471025870338405e-08
4.456484660196033e-08
4.455166911665261e-08
4.454850222203602e-08
4.454593341208931e-08
4.454328888359536e-08
4.454052567464552e-08
4.45376532317532e-08
4.453467024588235e-08
4.453161720936485e-08
4.452850483913966e-08
4.452533666534049e-08
4.452212935433987e-08
4.451890040262148e-08
4.451567001815237e-08
4.451253392742294e-08
4.450946092386272e-08
4.45065027543639e-08
4.450390588125328e-08
4.450165073463828e-08
4.449981665477757e-08
4.449852180923023e-08
4.449802546857117e-08
4.455284487763686e-08
5.726994087945304e-08
1.782561506617975e-06
0.0001351888219593108
0.005295489313747253
1.822840989074287e-07
5.064194542552152e-06
3.339387655759129e-05
0.0001173414613210166
0.0002974606355404623
0.0006145776885241741
0.001089629746154717
0.001697628981576291
0.002366986461110466
0.003019114269972748
0.003607068819084714
0.004119941266301396
0.004560580220386971
0.004933294894901108
0.00524536813102603
0.005505325504547603
0.005721593665520172
0.005901805221001538
0.006052551516422052
0.006179384291054632
0.006286929507592584
0.006379025365775152
0.006458819607932167
0.00652875880262736
0.006590634539628892
0.006645391904709929
0.006693668584459779
0.006736004426465606
0.006772855072112687
0.006804603281690335
0.006831568230892769
0.006854013102143294
0.006872151252531683
0.006886151206222915
0.006896140679021908
0.006902209805905268
0.006904413712177843
0.006902774544816193
0.006897283060258733
0.006887899848887103
0.006874556261858409
0.006857155089148258
0.00683557103269263
0.006809651015658147
0.006779214354977689
0.006744052816431948
0.006703930571912637
0.006658584087758363
0.006607721838426893
0.006551023675571086
0.006488139227136681
0.006418685073628885
0.006342240950660544
0.006258351328284096
0.00616654101000491
0.0060662264502367
0.005955882005842059
0.005833213902939277
0.005695417853813903
0.005539380060866587
0.005361816132631969
0.00515933761182025
0.004928448009958192
0.00466549333809872
0.00436662553940406
0.004027892313049079
0.003645662603610895
0.003218052672893479
0.0027491817963345
0.002255012562493947
0.00176473777403005
0.001309950976118102
0.0009016711447840744
0.0005370774263958361
0.0002432364248109089
6.969452135671209e-05
1.097240163601669e-05
1.163961557776188e-06
1.403306339721682e-07
4.943901153091772e-08
4.201856899004254e-08
4.145484569843707e-08
4.141307823729907e-08
4.140809700847029e-08
4.140541477319781e-08
4.140275976914732e-08
4.139999151923073e-08
4.139711318139412e-08
4.139412404462452e-08
4.13910574770259e-08
4.138792893436095e-08
4.13847444651769e-08
4.138151942015483e-08
4.137827147470799e-08
4.137502140563496e-08
4.137185666403544e-08
4.13687537731955e-08
4.136576164505625e-08
4.136310929620543e-08
4.136080324187221e-08
4.135892575391856e-08
4.135759340590152e-08
4.135715506454164e-08
4.144108999844562e-08
5.911670805052629e-08
2.260843108071643e-06
0.0001570498600945445
0.005747410588447309
1.65091129033548e-07
4.586549814400913e-06
3.024537740138198e-05
0.0001063038560230188
0.0002697218683077746
0.0005585807092588799
0.0009949939840342597
0.001561267756794352
0.002195259667956881
0.002822805913322326
0.003394953111895044
0.0038968449183384
0.004330837754737409
0.004699977071714617
0.005010459439078404
0.005270026308222478
0.005486584483919143
0.005667441512694983
0.005818995250545776
0.005946688191130834
0.006055089562190991
0.006148013975026961
0.006228608309343589
0.006299336286475384
0.006362016158613073
0.006417622091193073
0.00646681003390543
0.006510137079883695
0.006548075326091613
0.006581023424971395
0.006609316095264089
0.006633231907669303
0.006652999621283746
0.006668803319077608
0.006680786551985641
0.006689055664999369
0.006693682447504103
0.006694706225451333
0.006692135492823856
0.006685949164055955
0.006676097514651639
0.00666250286079748
0.00664506002459688
0.006623636630660966
0.006598073270482301
0.006568183563756552
0.00653375413904201
0.00649454455258218
0.006450287158847768
0.006400686944999797
0.006345421345176861
0.006284139886003433
0.006216463814762225
0.006141982506792597
0.006060250476783179
0.005970783339892106
0.005873054049271588
0.005766513934506761
0.005649764074639751
0.005520438251284765
0.00537549285099378
0.005211464208179529
0.005024617423102835
0.004810995139908246
0.004566368462402149
0.004286127526146571
0.003965215061374779
0.003598348235554793
0.003181211200153156
0.002714873376525794
0.002214153553560201
0.001712843412284768
0.001247994844809379
0.0008302093360221331
0.0004610318168924638
0.0001810483557747283
4.03878846614732e-05
4.809671700780212e-06
4.440444927212553e-07
6.959985103372807e-08
4.100309237616679e-08
3.898161402468644e-08
3.884695452985508e-08
3.883650150051386e-08
3.883353609752059e-08
3.883088084856547e-08
3.882812716620054e-08
3.882526401565892e-08
3.882229055714455e-08
3.881923457232797e-08
3.881611472570634e-08
3.881293906319874e-08
3.880972178876109e-08
3.880648078385813e-08
3.880323766164008e-08
3.880007270656352e-08
3.879696789085882e-08
3.879396999874265e-08
3.879129484843419e-08
3.878896725899655e-08
3.878707112348858e-08
3.878572006626945e-08
3.878539412991574e-08
3.890731629524146e-08
6.24341899633637e-08
2.782870673311737e-06
0.0001793271772622953
0.006223618587363767
1.500723601064026e-07
4.169305914756531e-06
2.749481961463117e-05
9.665691828680404e-05
0.0002454390972069698
0.0005093619135186954
0.000911164011224052
0.001439130249455227
0.002039787893429625
0.002643767227578444
0.003200838741457909
0.003692448712968753
0.004120417650709392
0.004486537303994952
0.004795930739315349
0.005055562884851112
0.005272825742172993
0.005454706531553962
0.00560741502812034
0.00573629089525824
0.005845853894641343
0.005939902149571241
0.006021585497376798
0.006093377680248115
0.006157114078845979
0.006213758948869676
0.006263992144042396
0.006308392265720813
0.006347450968137356
0.006381584923726154
0.00641114569171022
0.006436427811428832
0.006457675397535646
0.006475087490183602
0.006488822375008724
0.006499001051229163
0.006505709994877695
0.006509003337547005
0.006508904560420541
0.006505407787410078
0.006498478746455466
0.006488055451728262
0.006474048653856388
0.006456342106708711
0.006434792690474474
0.006409230421129053
0.006379458372757728
0.006345252534366001
0.00630636161851893
0.006262506829725771
0.006213381588403523
0.006158651190682557
0.006097952366303452
0.006030892603959225
0.005957048736683244
0.005875963903627072
0.005787141808427332
0.005690039808143612
0.005584058532465434
0.005468558402313152
0.00534182964459271
0.005201117675177039
0.005042987693649889
0.004863547223175481
0.004658529116290153
0.004423244820755263
0.004152431161018801
0.00384009555489948
0.003479651894291126
0.003065184951489965
0.002596646470655464
0.002090645128674269
0.001586802869587867
0.001123396071436973
0.000706006875339641
0.0003473439493298245
0.0001078002806529436
1.697464385951169e-05
1.540267488278214e-06
1.451598421528183e-07
4.386123144729315e-08
3.713074815322822e-08
3.671419117609332e-08
3.668813519918437e-08
3.668438909414391e-08
3.668172063498811e-08
3.667899145501599e-08
3.667615504732375e-08
3.667320951759633e-08
3.667017814164362e-08
3.6667081785398e-08
3.666393015627814e-08
3.666073668944955e-08
3.665751910616761e-08
3.665429896198369e-08
3.665115145250628e-08
3.664806299397834e-08
3.664507806727891e-08
3.66424005259918e-08
3.664006922294214e-08
3.663817046768331e-08
3.663681222645591e-08
3.663665843925619e-08
3.680626922584855e-08
6.707941062417423e-08
3.347343259410538e-06
0.0002021709311188748
0.00671939453423777
1.383634539594761e-07
3.844014122963083e-06
2.535031318716075e-05
8.913301083063595e-05
0.000226477556072948
0.0004708154669008329
0.0008451671065130236
0.00134228599656077
0.001915647232269182
0.002500100349938716
0.003044828011563062
0.003528362473951241
0.003951361018628746
0.004314923634174449
0.004623350687085376
0.004882974269113917
0.005100758323714443
0.005283420915273842
0.00543701182020878
0.005566780597674195
0.005677199908299093
0.005772047389444696
0.005854470539749869
0.005926955815897461
0.005991360188309781
0.006048672646144609
0.006099588370408092
0.00614469993829495
0.00618451190610302
0.006219453030909565
0.006249886369007358
0.006276117568252462
0.006298401631817967
0.006316948409296324
0.006331927033536034
0.006343469484300748
0.006351673428000033
0.006356604455883468
0.006358297821316587
0.006356759760232922
0.006351968465264277
0.00634387476940685
0.006332402585776771
0.006317449150174454
0.006298885109890525
0.006276554493764102
0.006250274592944413
0.006219835780532973
0.006185001295775957
0.006145507015239959
0.006101061228396273
0.006051344423424227
0.005996009080401813
0.005934679452976303
0.005866951285539902
0.005792391195845169
0.005710535326280772
0.005620885393333782
0.005522902497862294
0.005415998898448119
0.005299526510487567
0.005172181482778041
0.005031497524628416
0.004874113382425401
0.004696070394496782
0.004492896283955961
0.004259538036492966
0.003990161239309511
0.003677929567347632
0.003315125093490397
0.002894786091392429
0.002417653009090725
0.001906229817032046
0.001406237804907554
0.0009526313955364717
0.0005459876973100216
0.0002198926486298493
4.789632157409797e-05
5.05862901992524e-06
3.901187387100644e-07
5.714011310737685e-08
3.6155478771636e-08
3.493153607496148e-08
3.486321422944201e-08
3.485744881824866e-08
3.485471867909165e-08
3.48520174272799e-08
3.484921372756339e-08
3.484630248829021e-08
3.484330322767012e-08
3.484023837425589e-08
3.483711903148386e-08
3.483395788482956e-08
3.483077258598767e-08
3.482758496995769e-08
3.482446543542017e-08
3.482140358443531e-08
3.481844205452817e-08
3.481577535678807e-08
3.481345223419476e-08
3.481156099413342e-08
3.481020281261442e-08
3.481028934276966e-08
3.503815077017071e-08
7.296896555922227e-08
3.954377932561579e-06
0.0002256950863254045
0.007230684705786332
1.278252958860487e-07
3.551246805975259e-06
2.34201226725471e-05
8.235864522166489e-05
0.0002093823025766341
0.000435939125776555
0.000785030560703729
0.001253108444264189
0.00180002602910183
0.002365148447724563
0.002897948338324749
0.003374518847861377
0.003792981835050129
0.004154347217505533
0.004462181127585545
0.004722178643244704
0.004940857640214876
0.005124652261651286
0.005279443504332961
0.00541038730562716
0.005521909661195202
0.005617770797637726
0.005701119892737127
0.005774457818023648
0.005839662842565876
0.00589773424259957
0.005949387150411496
0.00599523174747061
0.006035788314544278
0.006071499857843735
0.006102742554745346
0.006129834341568902
0.006153041926991027
0.00617258649356975
0.00618864831161325
0.006201370451497722
0.006210861746433026
0.006217199129542322
0.00622042944771001
0.00622057083654442
0.006217613726230488
0.006211521537441288
0.006202231116033109
0.006189652948534581
0.006173671198865272
0.006154143604589818
0.006130901267436156
0.006103748368632436
0.006072461835933993
0.00603679098818099
0.005996457180109324
0.005951153468343826
0.005900544304694659
0.005844265243245488
0.005781922628670634
0.005713093192931956
0.00563732344409804
0.005554128156347197
0.005462987123975295
0.005363338504313969
0.005254567760171863
0.005135992580015409
0.005006497627625886
0.004863730413089472
0.004704315668029453
0.004524182454224043
0.004318615068875705
0.004082134179470129
0.003808228729534096
0.00348908832437316
0.003115858315232641
0.002681415685682064
0.002190757664894104
0.001677792902314556
0.001190994326180165
0.0007502119856842874
0.0003665091091550045
0.0001072523455361699
1.468737085883089e-05
1.114999594983764e-06
9.839668845336342e-08
3.688124757393691e-08
3.346943227426477e-08
3.329211300158272e-08
3.328135525898432e-08
3.327844399536914e-08
3.32757686640826e-08
3.327300028972539e-08
3.327012631404909e-08
3.326716293817054e-08
3.326413367644993e-08
3.326105085821031e-08
3.325792666664138e-08
3.325477847779058e-08
3.325162785740877e-08
3.324854174175339e-08
3.324551251666798e-08
3.32425808393368e-08
3.323993254502376e-08
3.323762407884544e-08
3.323574690893576e-08
3.323439309959643e-08
3.32347971461927e-08
3.353229944042465e-08
8.005503171276081e-08
4.604785795271035e-06
0.0002499596804265306
0.007752204735926632
1.200055814575303e-07
3.334002003960652e-06
2.198780357866892e-05
7.733071108609159e-05
0.0001966858191542974
0.0004099949795602242
0.0007401664639005047
0.001186306175421972
0.001712960644248365
0.002263018568571907
0.00278626575287712
0.003257018922221365
0.003671559479701272
0.004030789211604285
0.004337721928650466
0.004597579069385059
0.004816544761247749
0.005000837793658877
0.005156208083170725
0.005287735467845216
0.005399803749781905
0.005496151590149209
0.005579920742999761
0.005653618214130382
0.005719138501068133
0.005777516745161901
0.00582947874900826
0.005875644590997742
0.00591654377257016
0.005952627972510747
0.005984281634336962
0.006011830693045828
0.006035549718191664
0.00605566773209685
0.006072372927043085
0.006085816467110046
0.006096115528473421
0.006103355704740977
0.006107592878185865
0.006108854640199845
0.006107141330778056
0.006102426756020843
0.006094658632420754
0.006083758798465549
0.006069623230749188
0.0060521219014199
0.006031098512899681
0.00600637013887472
0.005977726801099694
0.005944931012043493
0.005907717311197743
0.005865791819409438
0.00581883183244624
0.005766485468634035
0.005708371368757416
0.00564407842627274
0.005573165493004731
0.005495160944096134
0.005409561539164353
0.00531582968457449
0.005213387637371108
0.005101607164381717
0.004979794823157983
0.004846688282949011
0.004699830214957008
0.00453576852818619
0.004350295389714213
0.004138415694190296
0.00389413592642497
0.003610116382848387
0.003277427260194129
0.002886265012607801
0.002431212378468741
0.00192699593560931
0.001419739614163798
0.0009519732318261343
0.0005306541092700782
0.000197733029631173
3.62917601156223e-05
3.091350588698651e-06
2.121791052014006e-07
4.144524857804439e-08
3.237393114540244e-08
3.192677874340164e-08
3.190418098193831e-08
3.190082108593559e-08
3.189816307920134e-08
3.189543094600071e-08
3.189259551008654e-08
3.18896698152613e-08
3.18866781406796e-08
3.188363387880368e-08
3.188054868262561e-08
3.187743976625558e-08
3.187432876161493e-08
3.18712791546671e-08
3.186828538560499e-08
3.186538647646583e-08
3.186276147637176e-08
3.186047194263074e-08
3.185861272643715e-08
3.185726565697139e-08
3.185807463354888e-08
3.223744227237547e-08
8.831317691303967e-08
5.299420494510609e-06
0.0002749747752423823
0.008278767260211968
1.111186844116722e-07
3.08710847073901e-06
2.035992526235823e-05
7.161448927414543e-05
0.000182234293923533
0.0003803720522240059
0.0006886254607135356
0.001108898916267215
0.001611125612709461
0.002142768341343867
0.002654525459987502
0.003118677561337391
0.003529026625580674
0.003886348154605748
0.004192936418697249
0.004453385487119006
0.004673436578574979
0.0048590262396307
0.005015738873425898
0.005148566315768838
0.005261853557346398
0.00535933113451008
0.005444150491358771
0.005518830608037695
0.00558528390727891
0.005644526550432976
0.005697308938391751
0.005744272371491082
0.005785964837457069
0.005822854303512852
0.00585533974750231
0.005883760253258703
0.005908402457686084
0.005929506617725141
0.005947271529603736
0.005961858494536769
0.005973394490199222
0.005981974677214946
0.005987664348438879
0.005990500408309679
0.005990492454317722
0.005987623518690552
0.005981850519017645
0.005973104462387513
0.005961290442542411
0.005946287467999489
0.005927948156574932
0.005906098331142526
0.005880536544822661
0.005851033564302641
0.005817331845999214
0.005779145035643964
0.005736157521561892
0.00568802406396527
0.005634369510001895
0.005574788587871196
0.005508845743387845
0.005436074938049227
0.005355979244336635
0.005268029898432864
0.005171663740797253
0.005066276903269208
0.004951212915006339
0.00482574525975712
0.004688330273392062
0.004536246308666244
0.004365835825281322
0.004172641746001877
0.0039512686412602
0.003695048075611891
0.00339560696869047
0.003042777597720934
0.002626562108470923
0.002147238535439118