/*--------------------------------*- C++ -*----------------------------------*\
| =========                 |                                                 |
| \\      /  F ield         | OpenFOAM: The Open Source CFD Toolbox           |
|  \\    /   O peration     | Version:  v1812                                 |
|   \\  /    A nd           | Web:      www.OpenFOAM.com                      |
|    \\/     M anipulation  |                                                 |
\*---------------------------------------------------------------------------*/
FoamFile
{
    version     2.0;
    format      ascii;
    class       volScalarField;
    location    "0.00000121";
    object      nut;
}
// * * * * * * * * * * * * * * * * * * * * * * * * * * * * * * * * * * * * * //

dimensions      [0 2 -1 0 0 0 0];


internalField   nonuniform List<scalar> 
44064
(
7.224736865099441e-13
1.09307825706027e-10
2.050661172066347e-09
1.474548116748822e-08
6.31859468291867e-08
1.913460675051788e-07
4.400636379975391e-07
8.134723204256384e-07
1.210945383495962e-06
1.681582666798578e-06
2.234377439285585e-06
2.871457260626225e-06
3.593107858185003e-06
4.398940816405357e-06
5.288356761549755e-06
6.260817460070602e-06
7.316024603069833e-06
8.454027332653692e-06
9.67527043183887e-06
1.098059874331591e-05
1.237123602239549e-05
1.384875391620841e-05
1.541503865175573e-05
1.707225501884999e-05
1.882280889163621e-05
2.066932517585553e-05
2.261466467192337e-05
2.466194706118779e-05
2.681449880615248e-05
2.907570127359789e-05
3.14487753113155e-05
3.393654064591926e-05
3.654117518962612e-05
3.926398464984726e-05
4.210518182127927e-05
4.506367198227443e-05
4.813684526737597e-05
5.132038514162422e-05
5.460811074899065e-05
5.799187422603357e-05
6.146151836742944e-05
6.500484029572665e-05
6.860737022870616e-05
7.225154034894694e-05
7.591453646309625e-05
7.956403330223677e-05
8.315172365591142e-05
8.660719063075561e-05
8.984061070348069e-05
9.277201250976166e-05
9.541190990690792e-05
9.800884953732577e-05
0.0001012212704312481
0.0001061093481779282
0.0001134497105746318
0.0001213674175891015
0.0001205991217864266
0.0001147265958526147
0.0001069671848065248
9.734049268444692e-05
8.603545046612562e-05
7.343511779887014e-05
6.010028758351373e-05
4.672559325112437e-05
3.407621653931041e-05
2.284807953443542e-05
1.365834865300688e-05
7.014967009949006e-06
3.019998680793898e-06
1.107188159895876e-06
3.636211868521455e-07
1.141390819112267e-07
3.858683605034025e-08
1.754662739109136e-08
1.213464627300269e-08
1.084996340568772e-08
1.056917912781751e-08
1.051283121732957e-08
1.050247911051904e-08
1.05007410855243e-08
1.05004726553182e-08
1.050043181245643e-08
1.050042277765948e-08
1.050041763957904e-08
1.050041284725406e-08
1.050040806424337e-08
1.050040318094635e-08
1.050039872262904e-08
1.050039376157247e-08
1.050038872482864e-08
1.050038443602359e-08
1.050038016649962e-08
1.050037615055286e-08
1.050037217559082e-08
1.050036879941134e-08
1.050036615792611e-08
1.050036347833238e-08
1.050036047256394e-08
1.050035874923258e-08
1.050035777298147e-08
1.050035672427404e-08
1.050035602739888e-08
1.050035580683071e-08
1.050043715762228e-08
1.054012450332987e-08
2.23978572552514e-08
2.430773452035259e-06
7.021550746032427e-05
1.859696889501909e-14
2.818076169400698e-12
5.327059828794252e-11
3.892673714856511e-10
1.708610204651766e-09
5.444739015568734e-09
1.381903458235826e-08
2.944841084623087e-08
5.4676110414445e-08
9.121518490950088e-08
1.404303207896769e-07
2.039007141850177e-07
2.837299449636293e-07
3.826753124302338e-07
5.042933075990362e-07
6.527383802398402e-07
8.328743873901717e-07
1.050944031152699e-06
1.315720571073453e-06
1.639009119383809e-06
2.03505068727392e-06
2.519593560431351e-06
3.109343469630029e-06
3.819636240748536e-06
4.664204863363377e-06
5.677946626706676e-06
6.908308910951558e-06
8.353748603118052e-06
9.999646409961062e-06
1.183313671518669e-05
1.384747048942557e-05
1.604390527259291e-05
1.843021380701757e-05
2.101655376909013e-05
2.381354407444508e-05
2.683171759831581e-05
3.008167903916089e-05
3.357348861198511e-05
3.731634070164698e-05
4.131806998545284e-05
4.55844636423989e-05
5.011852895337488e-05
5.491962030498809e-05
5.99823956819569e-05
6.529557218154553e-05
7.084069926661593e-05
7.659060658730442e-05
8.250754184574224e-05
8.854189369924025e-05
9.462946853319223e-05
0.0001000994236987235
0.0001046635162265962
0.0001086670518688178
0.0001124291423792878
0.0001162317493968099
0.0001202838431090451
0.0001246375652717241
0.0001288980098536216
0.0001314111806544593
0.000129188571315124
0.0001244652926217292
0.000116883459688042
0.000106328040996554
9.301844393586917e-05
7.7536843245788e-05
6.089274930665519e-05
4.427193001064474e-05
2.882382166058893e-05
1.577873179471483e-05
6.568161837767583e-06
1.923566015465372e-06
4.407990050542332e-07
9.933514063045777e-08
2.857845903947038e-08
1.406833141511745e-08
1.109583667668183e-08
1.049898232602608e-08
1.038418660274585e-08
1.036342268528097e-08
1.03599266350356e-08
1.035937089285303e-08
1.035927388805349e-08
1.035924112774127e-08
1.035921563844287e-08
1.035919003355979e-08
1.035916355134591e-08
1.035913610248346e-08
1.035910836837516e-08
1.035908152941697e-08
1.035905398722895e-08
1.035902450341465e-08
1.035899449405675e-08
1.035896502637859e-08
1.035893603601382e-08
1.035890710696106e-08
1.035888024450844e-08
1.035885542870408e-08
1.035883208813868e-08
1.035881441677473e-08
1.035879964132184e-08
1.035878758584647e-08
1.035877945313994e-08
1.035877630280041e-08
1.035929848495463e-08
1.055784982212442e-08
5.523625928019109e-08
6.067089436343079e-06
8.947357141003969e-05
2.650203796251526e-13
4.01375899419059e-11
7.558302699636843e-10
5.45538900509525e-09
2.338003798768968e-08
7.220012833577744e-08
1.775041853929044e-07
3.658521440696465e-07
6.511761967239752e-07
1.025897155519319e-06
1.42686191534357e-06
1.893932504913531e-06
2.436774233131127e-06
3.058787035574787e-06
3.761374119234337e-06
4.545107543317485e-06
5.41038677539794e-06
6.358128753991039e-06
7.390696626497572e-06
8.511764134288099e-06
9.723837063805545e-06
1.102805819082281e-05
1.242606245680029e-05
1.392043111516384e-05
1.551823204610261e-05
1.723037345562725e-05
1.906696937844261e-05
2.103717564032799e-05
2.314914087763433e-05
2.541010426221047e-05
2.782655891253872e-05
3.040441604360539e-05
3.314911597833598e-05
3.606566538028033e-05
3.915861052834015e-05
4.243197364512178e-05
4.588918351721289e-05
4.953302372996759e-05
5.336559317843044e-05
5.738820332454681e-05
6.160104930110966e-05
6.600262412622729e-05
7.058911809256578e-05
7.535397024934716e-05
8.028754153240358e-05
8.537685202210824e-05
9.060527903150575e-05
9.595205693484134e-05
0.000101391409039682
0.00010689133107516
0.0001124127106917355
0.0001179062534522028
0.0001232935719568301
0.0001284541626387807
0.0001332902952873096
0.0001377769922861765
0.0001418926241977875
0.0001455036715276877
0.0001482744473849597
0.0001496997897504955
0.000149297167216667
0.0001468968467472508
0.0001428935141021807
0.0001380510648499156
0.0001319012277267585
0.0001184120021111533
9.746797828647603e-05
7.535146592164308e-05
5.347879329078872e-05
3.329083059827882e-05
1.672627434385462e-05
5.990476759224647e-06
1.443337585614755e-06
2.734964128239112e-07
5.306544987187907e-08
1.674223700919585e-08
1.118128619245002e-08
1.037553990479425e-08
1.02638822231597e-08
1.024897234970818e-08
1.024703525613549e-08
1.024677314166573e-08
1.024671711462687e-08
1.02466840175593e-08
1.024665222571441e-08
1.024661950425261e-08
1.024658552634042e-08
1.024655094245744e-08
1.02465157365415e-08
1.02464797684841e-08
1.024644291376618e-08
1.024640539716035e-08
1.024636812450033e-08
1.024633103986585e-08
1.024629363489267e-08
1.02462586785547e-08
1.024622585961137e-08
1.024619449885902e-08
1.024616878609144e-08
1.024614660085908e-08
1.024612846068236e-08
1.024611597272733e-08
1.024611176616507e-08
1.024765681946748e-08
1.075314425134007e-08
1.076984886246599e-07
9.750488528623372e-06
9.616179367102593e-05
2.396155025029988e-13
3.629370519429418e-11
6.840064783176502e-10
4.952903016191055e-09
2.13985446636172e-08
6.698985025881742e-08
1.670398502773858e-07
3.471135703931696e-07
6.199469118440216e-07
9.780334779923143e-07
1.358983192424295e-06
1.802777436217719e-06
2.319363996792796e-06
2.913050085905469e-06
3.586751088905534e-06
4.34311013197731e-06
5.185000116423583e-06
6.115710954173911e-06
7.138512613766924e-06
8.256479892222786e-06
9.472785652427979e-06
1.078968561614097e-05
1.220619620610762e-05
1.371224728610754e-05
1.52763091389445e-05
1.694860129380471e-05
1.876281007992848e-05
2.073076565518456e-05
2.286521536626081e-05
2.517979683493388e-05
2.768905321615697e-05
3.040840428703864e-05
3.335425341545205e-05
3.654342247945073e-05
3.999328028725067e-05
4.372156370264227e-05
4.774610549203306e-05
5.208471618613396e-05
5.675421700600921e-05
6.172103747622997e-05
6.679071885303924e-05
7.200593780029802e-05
7.739974738136918e-05
8.299288293539886e-05
8.879297659806228e-05
9.479478000117572e-05
0.0001009802896416911
0.0001073172412141705
0.0001137550253285292
0.0001202200416912631
0.000126615811544601
0.0001328357116138505
0.0001387995547147346
0.0001444832215118528
0.0001498655595278122
0.0001548792380988739
0.0001594357483330542
0.0001634456105594216
0.0001668262085038115
0.00016948239456328
0.0001712381764705839
0.0001716797680766374
0.0001702576009487468
0.000166601804083583
0.0001605998830822306
0.000152573199642629
0.0001433313953533607
0.0001318123994266687
0.0001074578180381658
7.966908697799731e-05
5.290954656899874e-05
2.932797948392852e-05
1.193014164634728e-05
3.079024541626101e-06
5.421923726542236e-07
8.661505424962403e-08
2.013645758409277e-08
1.13619445039286e-08
1.029101894961368e-08
1.016929788805985e-08
1.01563057712443e-08
1.015496838923323e-08
1.01548076805069e-08
1.015475862023831e-08
1.015471840377727e-08
1.015467761717748e-08
1.015463537416683e-08
1.015459228248338e-08
1.015454819398416e-08
1.015450372521836e-08
1.015445864296307e-08
1.015441294936289e-08
1.015436752263681e-08
1.015432237318698e-08
1.015427704381413e-08
1.015423409437429e-08
1.015419348889716e-08
1.015415461414995e-08
1.015412142824423e-08
1.015409275289239e-08
1.015406949366164e-08
1.015405345835223e-08
1.015405073728497e-08
1.01576118995948e-08
1.118470248704696e-08
1.827255975276346e-07
1.330527687625007e-05
0.0001046137539182058
2.086987337520498e-13
3.161370427356861e-11
5.962199084900283e-10
4.328200531767302e-09
1.880678748409991e-08
5.936610062116733e-08
1.492145231678575e-07
3.127507587731593e-07
5.634902361094229e-07
8.997751471168092e-07
1.264290896315326e-06
1.682835277994971e-06
2.169662718149635e-06
2.730066795291528e-06
3.36725505751681e-06
4.08390058773849e-06
4.882749226955225e-06
5.767023981757333e-06
6.740686240559795e-06
7.808330726230301e-06
8.974147134502785e-06
1.023882831942294e-05
1.159249791861103e-05
1.300085623183777e-05
1.446866197103272e-05
1.605990051715128e-05
1.778497229657137e-05
1.965509975154167e-05
2.168241184697384e-05
2.387997946164033e-05
2.626185547164185e-05
2.884311674058649e-05
3.163990560186487e-05
3.466946877922292e-05
3.795019409942788e-05
4.150164341961509e-05
4.534458793602769e-05
4.950096224829044e-05
5.399381351621245e-05
5.884693899680106e-05
6.408483550956911e-05
6.973247510757474e-05
7.581422622743926e-05
8.235329902024452e-05
8.937132454939766e-05
9.688585733418417e-05
0.0001049079858047333
0.0001130037977332337
0.0001208849758812885
0.0001286393897366238
0.0001363268079208176
0.0001439761098791402
0.000151585607462408
0.0001591196163135571
0.0001665011591517911
0.0001736050377427553
0.0001802523616621536
0.0001862059029881284
0.0001911700024672324
0.0001948097433617168
0.0001968233785453036
0.0001971207766949829
0.000195750754658866
0.0001926548052802523
0.0001876698557298399
0.0001804607842496705
0.0001708716100553761
0.000159363050008667
0.0001468042507796657
0.0001318537652953702
0.0001005103468239715
6.830334232079202e-05
3.901942234571822e-05
1.635805811389494e-05
4.13369257010258e-06
6.4532625729361e-07
8.801636984214333e-08
1.872434242313243e-08
1.096532500555681e-08
1.016272852288312e-08
1.008563769233409e-08
1.007870446559798e-08
1.007808582603447e-08
1.007799710372149e-08
1.007794839072451e-08
1.007790132086856e-08
1.007785270285616e-08
1.007780292653696e-08
1.007775176837081e-08
1.007769979523132e-08
1.007764724708071e-08
1.007759421970357e-08
1.007754135026173e-08
1.007748869858075e-08
1.00774359014951e-08
1.007738541163273e-08
1.007733738313282e-08
1.007729126304118e-08
1.007725089414776e-08
1.007721590889417e-08
1.007718755090428e-08
1.007716776623983e-08
1.007716913554241e-08
1.008412272296338e-08
1.188331666550717e-08
2.798169610568329e-07
1.669466456930999e-05
0.0001141539004713598
1.804116518473096e-13
2.733064586914576e-11
5.156945123166144e-10
3.74945967801119e-09
1.63415137802667e-08
5.180958918215726e-08
1.310302801500707e-07
2.770410490659803e-07
5.043817741187752e-07
8.138797469030884e-07
1.165355015280714e-06
1.559267984730623e-06
2.016611102112243e-06
2.544093718705275e-06
3.145389946224191e-06
3.823431299320028e-06
4.581166781657847e-06
5.422007767580194e-06
6.350084332585312e-06
7.370042658586183e-06
8.485664402962562e-06
9.695870975455027e-06
1.098563023519342e-05
1.230820528585664e-05
1.370937709584692e-05
1.522763562341409e-05
1.687274692986802e-05
1.865529225982811e-05
2.058671469334821e-05
2.267936046184589e-05
2.494652336227328e-05
2.74024936657195e-05
3.006260952240018e-05
3.294330983455333e-05
3.60621867996781e-05
3.943803702561861e-05
4.309090993169918e-05
4.704215058425143e-05
5.131443454842125e-05
5.593179208972175e-05
6.091961603073995e-05
6.630463367537639e-05
7.211483011709192e-05
7.837932239669708e-05
8.512796112018955e-05
9.239047997350388e-05
0.0001001952980111059
0.0001085676994311483
0.0001175289628280337
0.0001270946465457024
0.0001372706907215422
0.0001480474543715082
0.0001585295053870641
0.0001681754595877669
0.0001771721565196331
0.000185664924167876
0.0001937269139674026
0.000201327921737534
0.0002083161667375618
0.000214420512033868
0.0002192659563405537
0.0002223936207964141
0.0002232804699406451
0.0002213868975597964
0.000216321050647158
0.0002082236419629559
0.0001976426893248004
0.0001852218582182014
0.0001715593442081221
0.0001570423627764419
0.0001405780354821645
0.0001130011339238529
7.647703963034815e-05
4.298607070537568e-05
1.716634125461412e-05
3.84653037758325e-06
5.0833049519855e-07
6.179930448929659e-08
1.490644400380027e-08
1.044118901479097e-08
1.004766002918587e-08
1.001541884860076e-08
1.001291980226565e-08
1.001269743476176e-08
1.001263610168082e-08
1.001258377109268e-08
1.00125301434671e-08
1.001247518401624e-08
1.001241871388953e-08
1.001236109612272e-08
1.001230272512357e-08
1.00122438523642e-08
1.001218503168394e-08
1.001212636928902e-08
1.001206762101379e-08
1.001201111322949e-08
1.001195710387798e-08
1.00119050706997e-08
1.001185884881021e-08
1.001181866280327e-08
1.001178602147912e-08
1.001176296068951e-08
1.001177416083869e-08
1.002405070749381e-08
1.28844220703471e-08
3.985764018776939e-07
1.992749175577123e-05
0.0001246505428874123
1.595931249215553e-13
2.417806448156678e-11
4.563703476455481e-10
3.321732863024356e-09
1.450716389906755e-08
4.614237406203929e-08
1.172712184040679e-07
2.497264084603857e-07
4.586597977775284e-07
7.467431299749635e-07
1.0870461592067e-06
1.460767687965037e-06
1.894118758781703e-06
2.394748956578148e-06
2.966587953991946e-06
3.612675349327878e-06
4.33600869930613e-06
5.140003990928602e-06
6.028761853699355e-06
7.006880600850478e-06
8.078081177296963e-06
9.241142664318539e-06
1.048050683462798e-05
1.174769306384429e-05
1.30944979472656e-05
1.45533110603212e-05
1.613335321183318e-05
1.784464141973832e-05
1.969801500495451e-05
2.170517385476854e-05
2.387872065594409e-05
2.623220857963282e-05
2.878019224478721e-05
3.153828134570746e-05
3.452319664098977e-05
3.775282747450567e-05
4.124628981253431e-05
4.502398432643092e-05
4.910765373800016e-05
5.352043759287314e-05
5.828691835609415e-05
6.343314143772243e-05
6.898659361311861e-05
7.497613394208245e-05
8.143186541535506e-05
8.838493132815461e-05
9.586722221509293e-05
0.0001039109833891073
0.0001125480512937898
0.0001218084424778547
0.0001317175075930959
0.0001422924202297623
0.0001535400718758459
0.0001654540843521134
0.000178006296440775
0.0001908722574346589
0.000202077780428525
0.0002119289528465736
0.0002206912705019725
0.0002284988437428313
0.000235288836369437
0.0002407793959526925
0.0002444862249478102
0.0002457700775746845
0.0002439153729985974
0.0002382500053061779
0.0002283410377709699
0.0002143975012010017
0.0001977599476560802
0.0001802155759180821
0.0001627846452802016
0.0001445542724136943
0.0001171540426282287
7.706719697804158e-05
4.08103877524249e-05
1.428913369036434e-05
2.555866716389699e-06
2.788989872598313e-07
3.372489233368998e-08
1.188474357936715e-08
1.01015503248855e-08
9.966505505264497e-09
9.956958478566392e-09
9.956284598703576e-09
9.956192578555894e-09
9.956134599723508e-09
9.956076577513062e-09
9.956017136198733e-09
9.955956101427059e-09
9.955893630869035e-09
9.955830243230486e-09
9.955766372823404e-09
9.955702528514847e-09
9.955638834742759e-09
9.955575087944286e-09
9.955513601870817e-09
9.955454731287613e-09
9.955397924704783e-09
9.95534690411435e-09
9.955302468657603e-09
9.955266427346696e-09
9.95524067023188e-09
9.955271296070825e-09
9.975416565446049e-09
1.422888843053626e-08
5.395831475375221e-07
2.304377243950499e-05
0.0001358808347457249
1.445405466164959e-13
2.189844746831793e-11
4.13448254196379e-10
3.011649976618276e-09
1.317156649046925e-08
4.198697014329593e-08
1.071068185816119e-07
2.294217508118809e-07
4.245221013371324e-07
6.965227745030168e-07
1.028000591450547e-06
1.386188517881228e-06
1.801187278926937e-06
2.281287210755202e-06
2.830596178196344e-06
3.452238789761697e-06
4.1492501920048e-06
4.925038311403912e-06
5.783659101757173e-06
6.729668520063576e-06
7.766837476410155e-06
8.89424157237064e-06
1.009706001896846e-05
1.132810415385674e-05
1.263556208440462e-05
1.405184243047264e-05
1.558586243660034e-05
1.724730866978431e-05
1.904666004505562e-05
2.099522099183999e-05
2.310515815035983e-05
2.538954314581041e-05
2.786239865281259e-05
3.053874697634367e-05
3.343466084166599e-05
3.65673162154658e-05
3.99550466867635e-05
4.361739928722659e-05
4.75751917736986e-05
5.185057122392235e-05
5.646707039081963e-05
6.144964726866181e-05
6.682469434057155e-05
7.262001388001166e-05
7.886475441212402e-05
8.558929827253658e-05
9.282508071137251e-05
0.0001006043150659975
0.0001089595907690685
0.0001179233086797187
0.0001275269151151241
0.0001377995429380611
0.0001487663527076924
0.0001604398702601994
0.0001728171539847311
0.0001858761328533484
0.0001995691831433217
0.0002138117900237796
0.0002264506817389142
0.0002370725145947786
0.0002460056520501073
0.0002534290261910603
0.0002592586751205889
0.0002631080283036308
0.0002643140055416971
0.0002620229244595547
0.0002553484120029199
0.0002436374501958005
0.0002269025855647209
0.0002064830240747087
0.0001851387517491948
0.000164946980947002
0.0001445235912219405
0.0001133797806100364
7.051524441319069e-05
3.334684614040746e-05
9.210283535636708e-06
1.207859008718587e-06
1.131037987469911e-07
1.774926660067114e-08
1.045789528594835e-08
9.942858683822261e-09
9.90903673127935e-09
9.906922611561671e-09
9.906748428316248e-09
9.906682822792347e-09
9.906620866573427e-09
9.906557547408052e-09
9.906492569175422e-09
9.906425901379748e-09
9.906358164570352e-09
9.906289958468778e-09
9.906221745687676e-09
9.906153681256268e-09
9.906085643120633e-09
9.90601988313067e-09
9.905956804610968e-09
9.905895847595763e-09
9.905840728082974e-09
9.905792672659786e-09
9.905753742671666e-09
9.90572561284848e-09
9.905788747680404e-09
9.936866912603566e-09
1.594372893260083e-08
7.027915892071703e-07
2.60716576891341e-05
0.0001476829036467004
1.313914640893415e-13
1.990695017510104e-11
3.759302571912986e-10
2.740110544093963e-09
1.199755027844854e-08
3.831356723091504e-08
9.804584766721631e-08
2.110217469744722e-07
3.930405124103087e-07
6.493843483331599e-07
9.718425412431334e-07
1.314744937034613e-06
1.711781437879723e-06
2.171751054326836e-06
2.698885437280501e-06
3.296374549856543e-06
3.967297081924846e-06
4.715083048697213e-06
5.543791450345613e-06
6.45797457514253e-06
7.461408464562758e-06
8.553161961256107e-06
9.718228115875787e-06
1.090851446867831e-05
1.217782839734403e-05
1.355314964233079e-05
1.504318032436325e-05
1.665738651498854e-05
1.840601880289241e-05
2.030014480970537e-05
2.23516838302342e-05
2.457344762833201e-05
2.697918428298464e-05
2.958362413413787e-05
3.240252720154238e-05
3.545273170129683e-05
3.875220360480809e-05
4.232008696856184e-05
4.617675491095486e-05
5.034386149240761e-05
5.484439200514156e-05
5.970269907522053e-05
6.49445107725159e-05
7.05969089414607e-05
7.668827661314268e-05
8.324820578351501e-05
9.030735292639103e-05
9.789722296118797e-05
0.0001060498573010905
0.0001147973897455212
0.0001241714216626237
0.000134202157093194
0.0001449172268265532
0.0001563399770122134
0.000168486197871892
0.0001813581225451057
0.0001949351606915539
0.0002091678315059965
0.0002239688529769386
0.0002392005639073836
0.0002520113500886289
0.0002623260824956269
0.000270454699559995
0.0002764642593393413
0.000280066451569893
0.0002806078742752829
0.0002771588556162929
0.000268713914447089
0.0002545363789563166
0.0002346847245159247
0.0002107080759424609
0.000186080934030789
0.0001635104747326847
0.0001404593529726916
0.0001024549859801421
5.796914537314663e-05
2.255896242151792e-05
4.311534172500815e-06
4.118187322625123e-07
3.900303267498078e-08
1.1789552626046e-08
9.981170796665524e-09
9.86975031862622e-09
9.86332200155147e-09
9.862922521183563e-09
9.862843110874955e-09
9.862777389827264e-09
9.862710649999823e-09
9.862642216064531e-09
9.862571875252504e-09
9.862500330279216e-09
9.862428336213182e-09
9.862356333365414e-09
9.862284485242268e-09
9.862212688157514e-09
9.86214320923815e-09
9.862076518667619e-09
9.862012008349893e-09
9.861953315453933e-09
9.861902069062733e-09
9.861860697222971e-09
9.861830430891841e-09
9.861943325080704e-09
9.907537144294349e-09
1.805379232455724e-08
8.882303404372728e-07
2.903423990852434e-05
0.0001599223234438834
1.211401802318377e-13
1.835425311333607e-11
3.466669395329451e-10
2.528017765649843e-09
1.107754215176839e-08
3.541653691516571e-08
9.084784392326821e-08
1.962978200618508e-07
3.677305147004314e-07
6.114447635031214e-07
9.244145825956639e-07
1.25724859747986e-06
1.640649895423161e-06
2.084997858051142e-06
2.594868220905933e-06
3.173556375838934e-06
3.82417451870172e-06
4.550143909189105e-06
5.355485390435643e-06
6.244715873059336e-06
7.22165747607208e-06
8.285656636070758e-06
9.422438620105403e-06
1.058531760764455e-05
1.182495924186585e-05
1.316848012739161e-05
1.462445485244797e-05
1.620221635538911e-05
1.791187578427191e-05
1.976435307533815e-05
2.177140990396024e-05
2.39456888939336e-05
2.630075574060476e-05
2.88511429718558e-05
3.161239466393063e-05
3.460111141816331e-05
3.783499528020501e-05
4.133289454567604e-05
4.511484838568517e-05
4.92021315128987e-05
5.361729809388252e-05
5.838421692441486e-05
6.352808375618204e-05
6.907540348829394e-05
7.505394121876913e-05
8.149263721883163e-05
8.842147452454807e-05
9.587128534796472e-05
0.0001038734775663202
0.0001124596562251461
0.0001216611061905516
0.0001315080823106964
0.0001420288460165846
0.0001532483675723841
0.0001651865553017524
0.0001778554098378572
0.0001912544900117179
0.0002053609173861326
0.0002201187288202809
0.0002354280704813798
0.0002511327495718675
0.0002654263380178767
0.0002767296245201627
0.0002853320023989435
0.0002913203446973486
0.0002944105075887109
0.0002939046188262803
0.0002887800144795443
0.0002779327676173998
0.0002606185023869467
0.0002371299843564809
0.0002096367520875288
0.0001824020600087858
0.0001580345653400424
0.0001324174142286897
8.550550289138086e-05
4.147801321381636e-05
1.164881664991637e-05
1.398275171243205e-06
1.097704884357027e-07
1.609846350108334e-08
1.018759885030253e-08
9.843328186331057e-09
9.824673516026835e-09
9.823677368751953e-09
9.823568342763916e-09
9.823498550420179e-09
9.823428730138283e-09
9.823357215533199e-09
9.823283602999859e-09
9.823208665388695e-09
9.823133302924511e-09
9.823057927174625e-09
9.822982721995053e-09
9.822907640065436e-09
9.822834910920121e-09
9.822765034369764e-09
9.822697372806127e-09
9.822635574372882e-09
9.822581542867358e-09
9.82253808363079e-09
9.822505860585245e-09
9.822690543247719e-09
9.88692373762519e-09
2.05862416700323e-08
1.096182841350278e-06
3.195222934346519e-05
0.0001724931644291393
1.119138832981753e-13
1.695673280677315e-11
3.203195587102729e-10
2.336897495243509e-09
1.02474615276543e-08
3.279603709559466e-08
8.429557612379758e-08
1.827179441617917e-07
3.439016622512534e-07
5.749656253991608e-07
8.738667919532985e-07
1.200263894458327e-06
1.570916369854531e-06
1.999953463595678e-06
2.492747395656459e-06
3.052829694744867e-06
3.683409599478094e-06
4.387950351400692e-06
5.170482204530692e-06
6.035522009261846e-06
6.986928591912029e-06
8.024193836443239e-06
9.133354263204684e-06
1.026810907642532e-05
1.147983366346304e-05
1.279352463088275e-05
1.421764431549636e-05
1.576140946794163e-05
1.74348132495306e-05
1.924865710290333e-05
2.121458504775991e-05
2.334512423724732e-05
2.565372825938358e-05
2.815482166964008e-05
3.086384487355268e-05
3.379729882658713e-05
3.697278872174111e-05
4.040906534873222e-05
4.412606353637374e-05
4.814493720816965e-05
5.248808974604939e-05
5.717919735032231e-05
6.224321842929674e-05
6.770637830314339e-05
7.359612132172601e-05
7.994102594741754e-05
8.677067755225452e-05
9.4115487367169e-05
0.0001020064371092049
0.0001104747250056809
0.000119551283891133
0.0001292661420976846
0.0001396475719131265
0.0001507209433273357
0.0001625071939618107
0.0001750207846739181
0.0001882669780165024
0.0002022369767816581
0.0002169000986510159
0.0002321908875693574
0.0002479931536707471
0.000264125357482951
0.0002793353184835867
0.0002911071545121797
0.0002996997366356329
0.0003051592968312968
0.0003071353699465811
0.0003048352895605393
0.0002971403474067572
0.0002829291860719231
0.0002616657806074907
0.0002342621599490694
0.0002039105023884441
0.0001754632979813038
0.0001491485828495792
0.0001136217945366981
6.371536123044488e-05
2.391955099626283e-05
4.080641766055431e-06
3.264027545245713e-07
2.892484498010981e-08
1.084480285370435e-08
9.842269683944454e-09
9.79074483353813e-09
9.788228678366891e-09
9.788052238558515e-09
9.787977197230471e-09
9.787904523231135e-09
9.787830216391118e-09
9.787753643781034e-09
9.78767563494336e-09
9.787597230378157e-09
9.787518830411833e-09
9.787440621837663e-09
9.787362565252751e-09
9.787286915756721e-09
9.787214222259224e-09
9.787143784342994e-09
9.78707920683873e-09
9.787022636807669e-09
9.786977411241318e-09
9.786943369248673e-09
9.787227041572316e-09
9.874771420905004e-09
2.356959419066279e-08
1.32707567999612e-06
3.483988383101267e-05
0.0001852421181458828
1.050676131174552e-13
1.591968794410654e-11
3.007638018279988e-10
2.194923577916186e-09
9.629540858974552e-09
3.083771041509168e-08
7.938161437352645e-08
1.725688037076783e-07
3.261584633921131e-07
5.480632978781471e-07
8.370352327935866e-07
1.158559497165425e-06
1.519876265283753e-06
1.937762332687061e-06
2.418094766966787e-06
2.964523072497046e-06
3.580278261217224e-06
4.268804410880697e-06
5.034091049453511e-06
5.880626837045915e-06
6.812347223247354e-06
7.829130169373714e-06
8.918073802734094e-06
1.003515926570388e-05
1.122561441531124e-05
1.25164517045557e-05
1.391600198062749e-05
1.543334822093115e-05
1.707834853729005e-05
1.886166751298277e-05
2.079481031675021e-05
2.289016322294354e-05
2.516103755274017e-05
2.762171545004485e-05
3.028749668982872e-05
3.317474500546573e-05
3.630093285506171e-05
3.968468463720374e-05
4.334581649143202e-05
4.7305370458565e-05
5.158564119632234e-05
5.621019387091086e-05
6.120386942336393e-05
6.659276888263615e-05
7.240420757850332e-05
7.866663387592551e-05
8.540950977459735e-05
9.266313971520607e-05
0.0001004584307896678
0.0001088265646727235
0.0001177985536886463
0.0001274046437832119
0.0001376735214986195
0.000148631272612453
0.0001603000105079033
0.0001726960667098913
0.0001858275938656988
0.0001996913433347699
0.0002142673441913179
0.0002295102526358972
0.0002453356690595375
0.0002616011928998413
0.0002780868585344065
0.0002931115816691704
0.0003046078939073788
0.0003126883509641733
0.0003172071471423697
0.0003176034383536721
0.0003128942980436804
0.0003018579266973693
0.0002834716394548575
0.0002576623793238339
0.0002263263056041735
0.0001939190547454806
0.0001648364577230103
0.0001360812771262837
8.765500416636005e-05
4.009273721129214e-05
9.731778675460661e-06
9.325572455453969e-07
6.481763705626913e-08
1.267064705323552e-08
9.898312752378073e-09
9.76224058931447e-09
9.755994638634453e-09
9.755663985354278e-09
9.755580759031179e-09
9.75550535730115e-09
9.755428492053052e-09
9.755349210829054e-09
9.755268389832206e-09
9.755187203027372e-09
9.755106031599799e-09
9.755025077059286e-09
9.754944343557616e-09
9.754866062163727e-09
9.754790803389296e-09
9.75471781899382e-09
9.754650759064123e-09
9.7545918855026e-09
9.75454514095993e-09
9.754509380459401e-09
9.754924919696743e-09
9.87101847513828e-09
2.703364733503441e-08
1.581325020423966e-06
3.770535488443666e-05
0.0001980263833422237
9.728699602864654e-14
1.474105364716505e-11
2.785308853080921e-10
2.033373762294135e-09
8.92540135706308e-09
2.859867765915181e-08
7.370574575770565e-08
1.606851375070157e-07
3.04933621044332e-07
5.150648953505243e-07
7.908802162165139e-07
1.106067404214256e-06
1.45531829577248e-06
1.85888271963265e-06
2.323304175769697e-06
2.852426074191938e-06
3.449570033335283e-06
4.118233858973533e-06
4.862439723706333e-06
5.686699386343739e-06
6.594954998271582e-06
7.586992659965583e-06
8.649446986478402e-06
9.736745492773478e-06
1.09012593804504e-05
1.21643962093431e-05
1.353439398706267e-05
1.502024538252482e-05
1.663172391356179e-05
1.837941832498011e-05
2.027476817616897e-05
2.23301054611182e-05
2.455869948689615e-05
2.697480328392418e-05