/*--------------------------------*- C++ -*----------------------------------*\
| =========                 |                                                 |
| \\      /  F ield         | OpenFOAM: The Open Source CFD Toolbox           |
|  \\    /   O peration     | Version:  v1812                                 |
|   \\  /    A nd           | Web:      www.OpenFOAM.com                      |
|    \\/     M anipulation  |                                                 |
\*---------------------------------------------------------------------------*/
FoamFile
{
    version     2.0;
    format      ascii;
    class       volScalarField;
    location    "0.00000121";
    object      omega;
}
// * * * * * * * * * * * * * * * * * * * * * * * * * * * * * * * * * * * * * //

dimensions      [0 0 -1 0 0 0 0];


internalField   nonuniform List<scalar> 
44064
(
1142211.796320986
209727.3958924061
73645.31250297026
35699.9834052966
20465.74732914323
12929.27769360152
8780.03273671486
6337.958213793296
4790.733392860984
3745.235972452979
3007.205808303588
2467.585280796002
2061.153039555316
1747.104896569556
1498.963963541832
1299.012678087662
1135.081596797963
998.625858203427
883.5284920881434
785.3296956981543
700.7187940730682
627.1948911666117
562.8375454411899
506.149524558749
455.9471526658741
411.2825448272379
371.3876030779856
335.633097091066
303.4982964349229
274.5480709798003
248.4154016349041
224.7879058051928
203.3973939284068
184.0117508014216
166.4286130966123
150.4704205309039
135.9805091116147
122.8200006715175
110.8653059319149
100.0061033771299
90.1436860228838
81.18958282296116
73.06437871585398
65.69666291909844
59.02202429541985
52.98201755668193
47.52307059745007
42.59542355993803
38.15240267022242
34.15062176108277
30.55205565601251
27.32990240512826
24.47487836000541
21.98188026611292
19.83545428933749
18.01649363262433
16.46007588731415
15.0982978594854
13.91019885645482
12.8838115354179
12.00208450392587
11.24455860048122
10.58988338823924
10.01744846726037
9.505836742467748
9.048949049820983
8.656139368156524
8.345068967575248
8.139573607329824
8.040881384348516
8.004305815018297
7.992784842073698
7.989768669697628
7.989019716406927
7.988803107527406
7.988767467654769
7.988758384145958
7.988750834997424
7.98874593753666
7.988740847877248
7.988735334357053
7.988729560660773
7.988723601118435
7.988717448894104
7.988711145701284
7.988704793313779
7.988698300552114
7.988692377089583
7.988685776360112
7.988679077552897
7.988673378506391
7.988667700134959
7.988662359596963
7.988657072174336
7.988652582787814
7.988649070647171
7.988645505493452
7.988641505643942
7.988639214454017
7.988637916213661
7.988636520646609
7.98863559347916
7.988635225187779
7.988635619918444
7.988639787702073
7.989706489712848
8.250874908418652
28.22307849153188
1142169.839411228
209401.3601983048
73050.55150722357
35168.60363086007
20431.33262092062
13489.25937278981
9820.774672455418
7732.19597462718
6469.912861870404
5653.392302657277
5074.938254126461
4619.054659368431
4224.550884802123
3860.771760371463
3513.31355878425
3178.35065501756
2856.619178984256
2549.3653225075
2256.856616517132
1979.78567592145
1720.492008684645
1482.330698059491
1268.17509369158
1080.016736914769
918.0174810155283
777.7107548062482
655.593602219654
553.2738311934401
469.6340866041719
401.7693630751348
346.5013500283188
301.0427974961371
263.1960285008926
231.3278082983423
204.2296693978184
180.9927023352068
160.9184516579722
143.4640974980005
128.2015830061162
114.7892877271627
102.9517921339753
92.46474165060316
83.14364514630348
74.83548865544934
67.41238419573861
60.76649721789923
54.80633903092007
49.45394053345111
44.64221682934306
40.31372985143323
36.40911019198489
32.86745535488487
29.64028557865965
26.70177557523611
24.03794905438046
21.64150915232454
19.5072113939873
17.6275854371488
15.98667791887477
14.55264556985915
13.30462745130589
12.2364787438498
11.33296927908543
10.57012277376737
9.920013764250449
9.340258283217535
8.780309141349864
8.201877210651199
7.624113749523587
7.134279343633156
6.849544186913481
6.759620651968494
6.740848290965606
6.737728515627921
6.737222488250542
6.737046120251156
6.736942612205288
6.736847726390942
6.736742267164123
6.736626363399879
6.736499918980428
6.736362875446551
6.736215367831179
6.736057802810617
6.735890602266218
6.735714355711316
6.735529627957862
6.735337927073382
6.735140962041566
6.734935777443657
6.734724120306574
6.734509775127105
6.734295371589939
6.734082194024039
6.733871691697551
6.733670073368945
6.733473877037265
6.733291671414698
6.733153275333149
6.733035351649517
6.732941404432028
6.732877423721041
6.73285034837888
6.732869735519388
6.732967389371195
6.73718203778536
7.469052949916192
39.88663061772245
1142191.908866194
209518.3134028738
73347.3538605558
35649.29760358534
20970.27298512449
13848.72606736017
9758.149886053719
7139.814237627975
5393.262638214763
4205.231184277181
3368.759747780964
2754.945018667879
2292.488308497365
1936.346644275352
1656.497613462682
1432.411096392658
1249.82488756526
1098.687357944454
971.8148778625812
864.0016377883024
771.409380540012
691.14921190352
621.0103734065085
559.2829890224416
504.6301269096488
456.0046035171457
412.5795901066979
373.6874146762073
338.7737192521968
307.369443499182
279.0716681777454
253.5312597001921
230.4443424712632
209.5458392398899
190.6039707100641
173.4156349621163
157.8023940358385
143.6069992996119
130.6904727938648
118.9296465695124
108.2150950486665
98.44928053437459
89.54502788552037
81.42417569819787
74.01645175775282
67.25850628698771
61.09308004724544
55.46825801735661
50.3367876625524
45.65548150086957
41.38479563811003
37.48874847817554
33.93492847049759
30.69426648382681
27.74124230684847
25.05494358314234
22.61935483731677
20.42195288419248
18.45151768640403
16.69724668534352
15.15120143438915
13.80795823816741
12.65579421444035
11.6721030833957
10.83322804063528
10.11627961762769
9.490927811122971
8.898534213451969
8.266407004864925
7.551767767242146
6.81534556111985
6.238975523628537
5.969515512780244
5.900303825439813
5.888323745083588
5.886496312242037
5.886152699310615
5.886008996462981
5.885880709789291
5.885744842913185
5.885599143912642
5.8854430607674
5.88527654057921
5.885099686747731
5.884912640836305
5.884715776062755
5.884509315362204
5.884294358703683
5.884070873475681
5.883838214827121
5.883598829045465
5.883354588338471
5.883107547852384
5.882859008783944
5.882610449869796
5.882374867879512
5.882144497439861
5.881925619884443
5.881747719038047
5.881593530544261
5.88146841295776
5.881380882439665
5.881340372374984
5.881360331680288
5.881498051534075
5.889980292216271
7.078990057734748
42.39920071879735
1142188.211034464
209497.4377729586
73285.83668620992
35520.03848296936
20752.20581244602
13550.80042141224
9442.678494863489
6873.531204703405
5189.601620441834
4051.544002100195
3251.103003171504
2664.056946532081
2221.488491525944
1880.098308173378
1611.29032225295
1395.63970964816
1219.685203090818
1073.935053210164
951.5808941620004
847.6522974413264
758.4593395695251
681.2181033202013
613.7889749901376
554.4859267895887
501.9241989178363
455.02730756405
413.0157061887937
375.2736206513054
341.2829972114092
310.6053805225387
282.8667683341456
257.7461426507971
234.9652006196814
214.2847613718166
195.4957434575116
178.4144458905516
162.8788375747344
148.7448025186152
135.8853419017436
124.1829826721652
113.5134469509339
103.7594295042358
94.82685344940042
86.63784848288871
79.12589488560472
72.23287955869363
65.90709130042511
60.10189970980245
54.77480239696491
49.88667159062044
45.40114210456369
41.28431442146983
37.50511141844039
34.03624359972289
30.85459719771842
27.94044574515727
25.27664720487252
22.84845692200864
20.64366034285523
18.65287481324542
16.86991124298432
15.29176624035974
13.91735382197818
12.74109569610341
11.74442005096722
10.89760267061778
10.16621634861112
9.526136557348831
8.940358591679184
8.3227381064266
7.585643985830874
6.730038371592515
5.925964465048903
5.446588404132663
5.302235106130158
5.277272248703235
5.273850067591869
5.273325718214579
5.2731340246786
5.272970239681575
5.272799837000028
5.272618599281016
5.272425950787356
5.272222337594113
5.272007820550521
5.271782767571602
5.27154754507329
5.271303289603902
5.271049965543831
5.270791771414191
5.270528233419194
5.270260081987052
5.26998919433123
5.269717039733515
5.269445349496018
5.269185023365506
5.268930273947727
5.268686887870998
5.268481389096173
5.268303691077636
5.268159867130374
5.268059505198532
5.268014279737922
5.268039334074878
5.268227831441642
5.282165139166579
6.883479757187284
42.77209564433265
1142184.804503887
209478.7203899713
73234.10519332749
35421.65091873371
20608.68709653482
13394.3154652149
9320.233861728722
6789.812451713131
5134.992976820404
4014.892940467058
3226.213407439813
2647.043658517814
2209.404563295461
1871.100263616068
1604.277858250045
1389.967173747593
1214.971389509082
1069.949885354779
948.1873289505195
844.7815976734539
756.0960156680521
679.3777947043446
612.4803216248365
553.646663851611
501.4665057827089
454.9146299218016
413.238946933442
375.8156956251711
342.121811392357
311.7152342587068
284.2195430572185
259.3119277621242
236.713723793684
216.182910833365
197.5081110951762
180.5037567141915
165.0061440463124
150.8704595134827
137.968157271526
126.1853496270246
115.420342756952
105.5820199746517
96.58950090256022
88.37044305409097
80.85952650850092
73.99893107405148
67.7376003177114
62.01896203958596
56.77874092019847
51.9606070594868
47.52120839629934
43.42594715587665
39.64627271388888
36.15798318137138
32.94012348134967
29.97425695281019
27.24399955166621
24.73475671125635
22.43361794020305
20.32937865399859
18.41278085821725
16.67757397488123
15.12199751557664
13.74876338029551
12.56240534436529
11.56083470902687
10.72262029746665
10.01192483150065
9.386981704031513
8.81703345829067
8.228632654068155
7.509440453777045
6.604770603666484
5.659822618117561
5.036921068895313
4.845216248289187
4.81520747026244
4.811659623239602
4.811167535854072
4.810971104932137
4.810791507908927
4.810602050028145
4.810401119419114
4.810187754103396
4.809962463856254
4.809726061879267
4.809478678031798
4.809221315225589
4.808953879113839
4.808680764227331
4.808402220248755
4.808118624653493
4.807831555437037
4.807542630495356
4.807253839973542
4.806974806310012
4.806701224505145
4.806438709581834
4.806211727339526
4.806015228527309
4.805855907026968
4.805744123177307
4.805693822841695
4.805720254223858
4.805962802590922
4.826261518223241
6.799147994767534
42.67640936625327
1142182.139299087
209464.5740006436
73198.49507004935
35364.60263656408
20544.92515702496
13347.20545481089
9300.534794274468
6791.749045877506
5147.280178423484
4028.726324062365
3239.336038196539
2659.167507409109
2219.903667451742
1879.773784164672
1611.209857262552
1395.374963866321
1219.11497308949
1073.086021692322
950.5499457594115
846.5758104870722
757.4972762201545
680.5295767720781
613.4843382130268
554.5387342926194
502.2738953538552
455.6953845738699
414.033847960636
376.6518382762497
343.0162949896617
312.6777712929104
285.2543830715076
260.4192846093539
237.8908428977423
217.4248711358063
198.8084466907295
181.8549488238802
166.4000432077588
152.2984114656564
139.4210657810785
127.6531260454826
116.8919706795407
107.0457088909445
98.03189920906401
89.77644231938858
82.21282233357788
75.28158414000553
68.92971724964518
63.110106751322
57.78017834559396
52.90131542024978
48.43906592714865
44.36338868099321
40.63765641273685
37.21689770658946
34.06232377642419
31.14607409976883
28.44775577047995
25.95193506242514
23.64633486819731
21.52074176101461
19.5665329396636
17.77669068389879
16.14612603808879
14.67216515027741
13.35541224044689
12.20091607739017
11.21587518695758
10.39663756206248
9.713476058322838
9.121273413365888
8.57657421671427
8.007015034797716
7.296637440473766
6.352476911928105
5.317936166082709
4.655332452644836
4.47610525609328
4.452780103691296
4.450376805299621
4.450014819246486
4.449818024645761
4.449623852544763
4.449418351135877
4.44920087841404
4.448971575488637
4.448730707471954
4.448478560007828
4.448216091746465
4.447943251124978
4.447663920811812
4.447378995783421
4.447088716764193
4.446794502243808
4.44649805251937
4.446201494356751
4.44591335586971
4.44563040592959
4.445358045254965
4.445119188485366
4.444911782109527
4.444743081734708
4.444623987198914
4.444569439313397
4.444594922522677
4.444897921440898
4.472320735046845
6.784036025013463
42.48268151170655
1142180.147152496
209454.0920102627
73172.75701603538
35325.3756878511
20504.39614593323
13319.16055506513
9291.535987971958
6797.955378618224
5160.658232048857
4043.04257887712
3252.941295389272
2671.790457045112
2231.031124392569
1889.271081542499
1619.133503571966
1401.883496680955
1224.403839291686
1077.351548247397
953.9728327755929
849.3158807506273
759.693711394044
682.3027294243884
614.9361056185431
555.7481598426189
503.3132668522927
456.6240546337405
414.8963018766759
377.4805146274765
343.834395009302
313.5014410490608
286.0943988300394
261.282349952984
238.7805888884011
218.3426271945589
199.7538278605998
182.8263011708541
167.3947825018595
153.3132762034119
140.4523029558125
128.6966280298931
117.9433817354944
108.1005123462236
99.08549871337271
90.8242484324207
83.25014194872389
76.30319688084275
69.92932951443333
64.07969466350335
58.71022876423176
53.78135983277257
49.25798662376727
45.10911447893366
41.30674730821375
37.82530575047818
34.64226341036537
31.73615013979325
29.07460450896354
26.62236444829174
24.35546555909754
22.25770595103564
20.31794698565293
18.52821360465956
16.88257115637536
15.37671659296269
14.00822026754176
12.77736918063396
11.68873726627514
10.75110669457721
9.970139242456955
9.326531755852404
8.774266369227822
8.256729478622535
7.696457796555914
6.968949792592862
5.960159611481665
4.877449036935634
4.293025753516524
4.173416222167216
4.161040236501596
4.159871956913546
4.159615864757749
4.159416324662624
4.159209695053558
4.158990896449676
4.158759932223358
4.158517480297737
4.158263669118149
4.157999390226019
4.157724644717065
4.157442718018769
4.157154945716644
4.156861753822011
4.156564471631312
4.156264822535334
4.155964978430838
4.155672757682832
4.155385654377334
4.155108812115405
4.154863682260119
4.154650586668654
4.154477035421908
4.154353950434249
4.154297139131165
4.154321749529124
4.154696154877242
4.189980948051062
6.815284281548744
42.29743362411993
1142178.668187676
209446.3464150419
73153.96085096557
35297.54680933585
20477.58468994113
13303.66795585674
9289.735212106096
6805.229893283073
5171.1316349429
4052.711579081467
3261.348235230925
2680.060975260534
2238.783644340804
1896.106409789355
1624.896912235064
1406.584650527484
1228.138934189433
1080.251524278771
956.1738250453842
850.9451453038785
760.8642418376224
683.1128895914421
615.4709929090509
556.0803644562827
503.5008427892068
456.7103654162749
414.9151232542252
377.4581417035143
343.791263696726
313.4534010158397
286.0537050754253
261.2584192466602
238.7805767976174
218.3718711263264
199.816190259065
182.9244351864766
167.5303372808126
153.487056423648
140.6643934228664
128.9464900045547
118.229925307707
108.4221497914966
99.440185850015
91.20952030668909
83.6631435635076
76.74071053651943
70.38780994285226
64.55532795309713
59.19889303291034
54.27838666216659
49.75750679335867
45.60348860393582
41.78675958384764
38.28214580846772
35.06741279467327
32.12237767289307
29.42866206479294
26.97004657163866
24.72282879296555
22.6573097921988
20.75070351870745
18.98802345920192
17.35956674504164
15.85901577357137
14.48229832679557
13.22726112013641
12.09417521648439
11.08719909436499
10.21592025910417
9.489944708183833
8.895469540764152
8.38495307673368
7.890394925510997
7.322375573097935
6.538044655861995
5.429249741112581
4.385085921101471
3.981981064067051
3.925990971484219
3.921280388627231
3.92077863231813
3.920564021302274
3.920356295302537
3.920137768633673
3.919907361988069
3.919665294948891
3.919411844780802
3.919147880568982
3.918873434371937
3.918591322317497
3.918303182750896
3.918009590464086
3.917711796190665
3.917411543623136
3.917111062792731
3.916817567935393
3.916529080037965
3.91625054367579
3.916002277167772
3.915786302095237
3.915610273694061
3.91548500151886
3.915427142437088
3.915451081053809
3.915908896048894
3.959738158578611
6.87824224299453
42.14176748753827
1142177.394448993
209439.7121650187
73138.08635690622
35274.8244026645
20457.43435206581
13294.55726345663
9293.244261773247
6819.819616171228
5189.764996286742
4071.190250218483
3278.781442280583
2696.440096914237
2253.68256137456
1909.31539033302
1636.394176165247
1416.467504682262
1236.562752818614
1087.390145878463
962.1982728271415
856.0141359494548
765.1210975572595
686.6848993924033
618.4679981484989
558.5891367467192
505.6003318447844
458.4734259453708
416.400788196198
378.7144075719463
344.8573554178857
314.3615468533583
286.8305466560926
261.9261207779383
239.3576962817368
218.8740453442859
200.256675494739
183.314535703082
167.8797433359509
153.8041106196763
140.9563009131329
129.2194836582244
118.4893935162276
108.6727325937784
99.68584837806129
91.45360899671033
83.90842739803718
76.98941209371051
70.64162735406036
64.81544973836102
59.46600758371866
54.55269360747901
50.03874084075004
45.89085096751317
42.0788646031841
38.57549885329769
35.3563010616019
32.39978348455641
29.68752167590911
27.2032260753274
24.93229955077909
22.86181233431595
20.97083016252463
19.23353571227343
17.63148865798058
16.15280986762882
14.79003324648563
13.53861244637126
12.39624138891931
11.36316034051776
10.44369041150092
9.648383398669358
8.988449083508955
8.449495336116083
7.978066332236466
7.494220990550553
6.890898169431011
5.991876317892493
4.778601011814181
3.937031038226912
3.740158879650906
3.721757827460781
3.72034739896686
3.720079428520824
3.719870309870575
3.719652992512405
3.719423833590223
3.719183223602347
3.718931291387321
3.718668867906453
3.718396015406708
3.718115173756823
3.717828193407009
3.717535773786496
3.717239111045129
3.716939940337476
3.716640486368535
3.716347519489891
3.716059485505751
3.71578112420189
3.71553173635209
3.715314648873245
3.71513769992719
3.715011374733474
3.714953253288583
3.714976657649465
3.715530200983372
3.768553163543876
6.963190073369827
42.0166140007064
1142176.391802263
209434.5163067436
73125.84586610578
35258.06346844391
20444.74784840188
13293.66188536704
9303.105830743409
6838.007656620098
5209.377943056338
4088.840888284022
3293.790544728847
2709.565131285284
2265.132282730803
1919.145621966779
1644.714207996621
1423.43453374601
1242.349228403412
1092.163574150281
966.1106028181257
859.1990868729207
767.695919531148
688.754157330566
620.1276285852714
559.9223410752558
506.6706840813101
459.3295951871343
417.0814182100668
379.2505792734415
345.2743855857645
314.6803240764892
287.0685176833907
262.0980167266122
239.4760703432601
218.9496761171122
200.2988733011323
183.3313793779134
167.8782666935651
153.7904500943898
140.9358126832154
129.1968369005812
118.468641484734
108.6573581627331
99.67879103799591
91.45728915278877
83.92477473675066
77.01989661850938
70.68729204701485
64.87694159891657
59.54360478426275
54.64632581604688
50.14800061771992
46.01500012088634
42.21684008966506
38.72589018067789
35.51712350210661
32.56797868069255
29.85830725297426
27.37076491903782
25.09056147771754
23.00489864005607
21.10249069276002
19.36813841416472
17.78060752466095
16.32078401969059
14.97599070184856
13.73811844096715
12.60220264694139
11.56573755843023
10.62902795046424
9.797011899347982
9.081455817387413
8.492878375138975
8.010776125999136
7.566288629501781
7.069369326711461
6.38541004786089
5.301426746173147
4.111689883490597
3.617763601872167
3.553949192260119
3.549414085607091
3.548969615206467
3.548752557439787
3.548536668681173
3.548309610525933
3.548071073864498
3.547821303011153
3.547561109762622
3.547290577318052
3.547011837979471
3.546726895562417
3.546436555137888
3.546141959365269
3.545844838757236
3.545547433216595
3.545256104905677
3.544969615235175
3.544692535364276
3.544443351601269
3.544226340322362
3.544049480668007
3.543922834629936
3.543865012290226
3.543888038382581
3.544550128615477
3.607407253055135
7.063516097713642
41.91867387740295
1142175.502439498
209429.8970469569
73114.86931002693
35242.72904108829
20432.60196796883
13292.43300054422
9312.832260032517
6858.157528056443
5234.130062990907
4113.547563965404
3316.235798189734
2729.385353248263
2282.604589167939
1934.278535873211
1657.645834732884
1434.380353895934
1251.548887029561
1099.850979558556
972.5007828638176
864.4854183701367
772.0525069678857
692.3399859396604
623.0899731587101
562.3681804550848
508.6888027961431
460.9936989813439
418.4509767153922
380.3740877149841
346.1917388020649
315.4245943176969
287.6673072325658
262.574500751155
239.8498130477537
219.2372789995603
200.5144963943336
183.4871621935456
167.9846709204506
153.8565437207614
140.9695075696571
129.2050877467727
118.4576111707031
108.6325416459571
99.64509022100685
91.41905243877467
83.8858228938047
76.98354545309191
70.65637194943005
64.85381459929252
59.53018268281448
54.64409155913773
50.15803247725788
46.03799085956031
42.25311062597877
38.77540250363823
35.57948720737489
32.6423698966728
29.94324072915169
27.4634651127307
25.18665117236778
23.09883286316262
21.18835815583921
19.44528397030918
17.85802476483009
16.40863101210957
15.07875357572555
13.85600517055122
12.73231280738917
11.70267945945505
10.76463593140844
9.918868824251359
9.171640611691704
8.536453213812672
8.019562422379739
7.586328743930967
7.14899304171531
6.602711995029969
5.752288020928252
4.48387787684338
3.599279647874725
3.41602385251877
3.401805213511981
3.40082231751581
3.400580694193225
3.400365709413733
3.400140756063448
3.399904616801478
3.399657354483625
3.399399760260583
3.399131940226499
3.398855769046445
3.398573360736675
3.398285613447258
3.39799363279917
3.397699129187336
3.397404319674354
3.397115260637347
3.396830983944048
3.396555887174836
3.396307707594451
3.396091468496581
3.395915358991346
3.395788842921218
3.395731702659422
3.395754495079895
3.39653839880175
3.469874299319913
7.174526804938119
41.84903958948243
1142174.813882713
209426.3415002991
73106.5488766608
35231.61893386179
20425.25412527741
13295.24708681279
9324.154840410354
6874.395313254343
5251.927625710621
4129.118985586683
3328.731747142853
2739.85305017553
2291.613432392794
1941.966610944677
1664.162962338042
1439.864858501448
1256.136434675394
1103.666919983746
975.6555531688426
867.072813567309
774.1505126900121
694.0136444312404
624.3951649283482
563.381015132681
509.4722025430949
461.5938192018922
418.9047082002069
380.710945342957
346.4353570048981
315.5939403774063
287.7776494800063
262.6381749440729
239.8768216748025
219.2357582949113
200.4910801717837
183.4472718963589
167.9327512825444
153.7962506326479
140.9038604542869
129.1365986775353
118.3883962503397
108.5644139572856
99.57962935745664
91.3576488940959
83.82970318635527
76.93378505257286
70.61389918776307
64.81941101213378
59.50448114818163
54.62757213665443
50.15101736149024
46.04064377269089
42.26543905542933
38.79725556592517
35.61054893677612
32.68214808710215
29.99105448802488
27.51827321269427
25.24678484993117
23.16162186012536
21.25001903455765
19.50146751178982
17.90733603667163
16.4566753564546
15.13311005991784
13.92071854852607
12.80835121968759
11.78841460461126
10.85602965552212
10.0088805875973
9.248454186147329
8.583244417683101
8.02803975896518
7.578731735043338
7.174554674570859
6.713924476796235
6.053894062487888
4.931891494190161
3.729201138444962
3.314917774179863
3.273477942696442
3.270965437196131
3.270651469122815
3.270435557421929
3.270213049891952
3.269979484105521
3.269734920668027
3.269480132275234
3.269215241141568
3.268941903162396
3.268662313167589
3.268377450399833
3.268088381546512
3.267796803641353
3.267504932784722
3.267218529866491
3.266936834209952
3.266664097081251
3.266417451876947
3.266202452814268
3.266027504722993
3.265901381036042
3.26584519058905
3.265867889273084
3.266787341661801
3.351253174435822
7.292724762441673
41.80638519214297
1142174.072051242
209422.511078963
73097.54980973635
35219.54035314543
20417.49010864621
13300.33705604859
9342.90066038091
6901.067102231526
5283.528943747504
4160.190998622842
3356.419095531895
2764.160879870851
2313.024495422079
1960.578064720587
1680.122576137976
1453.436406712624
1267.617451479351
1113.347497758863
983.7990773783697
873.9128552125632
779.8938917242708
698.8440844477221
628.4612052636918
566.8044432437634
512.3521707313182
464.0202812612751
420.9504277648283
382.4353214744553
347.8872585624811
316.8138512631168
288.7993439246667
263.4900342725057
240.5828721035755
219.8164915352273
200.9641050158775
183.8278286105606
168.2341163798459
154.0300633945834
141.0803841475011
129.2649231700988
118.4765893150799
108.6196370417056
99.60823419042224
91.36525944136012
83.82128337353328
76.91369343034779
70.58593525104712
64.78685147406735
59.47011273355078
54.59372967859114
50.11962586409103
46.01326046460638
42.2432910485303
38.78127310276019
35.6013947001788
32.68024224783311
29.99659436597764
27.53124089015385
25.26682989829997
23.18776256950636
21.28025905904671
19.532636534783
17.93542777618485
16.48098423933033
15.15818455410702
13.95153236852535
12.84749855706729
11.8364666838956
10.91168174899891
10.06869029359727
9.30573409509064
8.625979255308202
8.04107230161117
7.563191208119356
7.167521387655125
6.760831942611525
6.226588638204943
5.328456455258975
4.006462956001072
3.270166443428268
3.162549683008261
3.155950718493191
3.155447378041194
3.155225606671626
3.155005164074119
3.154774209572491
3.154532391782341
3.154280462640632
3.154018562356289
3.15374815773601
3.15347150164402
3.153189647131654
3.152903633712433
3.152615134448159
3.152326337241127
3.152042778001455
3.151763883088606
3.151493749025192
3.15124894796228
3.151035441048895
3.150861938129153
3.150736358741144
3.150681309664751
3.1507040537857
3.151773405376532
3.248039563686394
7.415496046489617
41.7877481639979
1142173.435958395
209419.2057106814
73089.63419430348
35208.37311784678
20408.88999622488
13301.85399311349
9356.745009735379
6921.83638698402
5308.124900145206
4185.41324276124
3379.284968715808
2784.137488345118
2330.471955218244
1975.735886135884
1693.211952939837
1464.708728302743
1277.280111622229
1121.588365991033
990.7921191292438
879.8187871457906
784.8613857275077
703.0125542350476
631.9593551807953
569.7482660243476
514.8340399232648
466.1145758641822
422.7179318323694
383.9263171805425
349.1435949470733
317.8705278982724
289.6857648219587
264.2310112350074
241.1994200794078
220.3264735687797
201.3827619537627
184.1682151597473
168.5074605296021
154.2460578872967
141.2474254083347
129.3903128373612
118.5667112180717
108.6801095618173
99.64402948404719
91.38079431461509
83.8204869494455
76.90005620653311
70.56254715943837
64.75643755928854
59.43506582739596
54.55613673119984
50.08129195979389
45.97573080629882
42.20787445787565
38.74906536658192
35.57329649326083
32.65697001693216
29.97868369049109
27.51904169436174
25.26048614023276
23.18715884772025
21.28478787318853
19.54084755764318
17.94474833583578
16.48798845614958
15.16371018522983
13.96005871977182
12.86201839103328
11.85839378071852
10.94102436954609
10.10400499405371
9.343510859863208
8.659027484531569
8.056792287155536
7.551563682514836
7.144324028457315
6.770179006521998
6.318795224646333
5.614814629081256
4.37053593873209
3.310215075775239
3.070054828716423
3.053262369411358
3.052286571674919
3.052047576347864
3.051828964326782
3.051600593569621
3.051361513888587
3.051112442004871
3.050853532635999
3.050586087692172
3.050312402478614
3.050033596153387
3.049750678547155
3.049465306259351
3.049179659593725
3.048899047625955
3.04862304452975
3.048355609971756
3.048112868646436
3.047901033535227
3.047729154680095
3.047604197615725
3.047550438762754
3.04757338575676
3.048807706674008
3.157561456720765
7.540763099038991
41.78972121555934
1142172.800027699
209415.8906766773
73081.5933672645
35196.671155237
20398.96653182616
13301.32493197172
9368.858293302394
6941.219423580539
5329.413120517636
4207.385880661104
3400.051422646742
2803.819874123194
2349.563304790265
1993.820461239247
1709.911996473417
1479.774597562625
1290.694156288635
1133.394223209493
1001.088246870427
888.7404753619504
792.5661848902631
709.644633177449
637.6610792161955
574.6375716029314
519.0170348683813
469.6926676974658
425.775586947986
386.5345921649183
351.3629486548472
319.7527903772196
291.2756170566363
265.5671621903703
242.3155456108086
221.2519667730892
202.1433442962675
184.786445916361
169.0031662360323
154.6366964089832
141.5483990216746
129.6152325050165
118.7276085562325
108.7876121809543
99.7075152020131
91.40851628963379
83.81966959237182
76.87697321759872
70.52259213437632
64.70419715532262
59.37439976090683
54.49026474196691
50.01288148044658
45.90697945635704
42.14058127195698
38.68469355549571
35.51303098831468
32.6017640653166
29.92928692008406
27.47601093425913
25.22418907634503
23.1577655020759
21.26224600071038
19.52461161628894
17.93355710833599
16.47963348724755
15.15526433079972
13.95219548303944
12.85813734989405
11.86045096603324
10.94981785135962
10.11926172414027
9.363646795869951
8.68010860215113
8.070357192970596
7.544871816967349
7.116489879488733
6.756435635927661
6.36085049050291
5.792628419340019
4.738505220879096
3.454236583643103
3.00165074192171
2.961188244338445
2.959096751429624
2.95881479197225
2.95859690970873
2.958371071465764
2.958134695875895
2.957888450800433
2.957632504361997
2.957368012178523
2.957097298866344
2.956821544882933
2.956541739400417
2.956259514256526
2.955977020920247
2.955699393465012
2.955426346677259
2.955161690563242
2.95492113611286
2.954711056756772
2.954540941323082
2.95441665813838
2.954364306144579
2.954387630312686
2.955802886036052
3.077759105944551
7.666944007003337
41.80722778164098
1142172.2118297
209412.8343371504
73074.28210461441
35186.44448635448
20391.69958864386
13305.70642905693
9390.210596394982