/*--------------------------------*- C++ -*----------------------------------*\
| =========                 |                                                 |
| \\      /  F ield         | OpenFOAM: The Open Source CFD Toolbox           |
|  \\    /   O peration     | Version:  v1812                                 |
|   \\  /    A nd           | Web:      www.OpenFOAM.com                      |
|    \\/     M anipulation  |                                                 |
\*---------------------------------------------------------------------------*/
FoamFile
{
    version     2.0;
    format      ascii;
    class       volScalarField;
    location    "0.00000121";
    object      p;
}
// * * * * * * * * * * * * * * * * * * * * * * * * * * * * * * * * * * * * * //

dimensions      [0 2 -2 0 0 0 0];


internalField   nonuniform List<scalar> 
44064
(
0.06367055705638644
0.06367026282339486
0.06366996683530919
0.06366973565712725
0.06366967037952585
0.06366992475639309
0.06367060492352625
0.06367162706569642
0.06367279130016926
0.06367404970388064
0.0636754526611662
0.06367699271131827
0.06367863802607328
0.06368035783924939
0.06368212613833442
0.06368392076987595
0.06368572335383277
0.0636875195154006
0.06368929904125636
0.0636910559000516
0.06369278790876308
0.06369449594153546
0.06369618239815231
0.06369784946902354
0.06369949802961247
0.06370112873339913
0.06370274327391832
0.06370434098187572
0.06370591548399268
0.06370745550912191
0.06370894667997724
0.06371037255291583
0.06371171495709893
0.06371295392137838
0.06371406742877063
0.06371503118023274
0.06371581842863029
0.06371639987291683
0.06371674360225703
0.06371681509533633
0.06371657725529556
0.06371599041188887
0.06371501213621844
0.06371359660033402
0.0637116931457016
0.06370924387264031
0.06370618074358263
0.06370242428796853
0.06369788825676785
0.06369249524254109
0.06368620430537776
0.06367905652870673
0.06367121079345027
0.06366285375718908
0.06365382016240245
0.0636430724027303
0.06362949579791288
0.06361335939447817
0.0635954336448746
0.06357583616010005
0.06355437907660028
0.0635308397823884
0.06350485225459587
0.06347608586312019
0.06344563583857317
0.06341763739134257
0.06339096882364639
0.06336216762523227
0.06333057615334332
0.06329482640306081
0.06325345862250921
0.0632080785037889
0.06316019109730961
0.06310847940153806
0.06305252550308557
0.06299263779581346
0.06292851654521348
0.06285988848901773
0.06278658968419704
0.06270843335396448
0.06262524456737405
0.06253687469160912
0.06244320370020377
0.06234414450057391
0.06223965308682611
0.06212973817738288
0.062014468554634
0.06189399049364115
0.06176850189777809
0.06163847067621925
0.06150458747621388
0.06136748617871757
0.06122793501478142
0.06108688103308946
0.06094555047236522
0.06080501813585227
0.06066632651185939
0.06053196656686215
0.06040745118177849
0.06029904998327761
0.06021156630108766
0.0601510393556964
0.060125127097749
0.06014363416645787
0.06021946021272991
0.06037154495146541
0.06062705430501538
0.06091589981945101
0.05604449647421098
0.05604451749664115
0.05604454102271643
0.0560445633977018
0.05604458305239441
0.05604459536111583
0.05604459557398397
0.05604458508476564
0.05604457305102963
0.05604456694418698
0.05604456704052564
0.0560445726325768
0.05604458498783045
0.05604460581550264
0.05604463688555357
0.05604468013377215
0.05604473780369624
0.05604481262276471
0.0560449079902166
0.05604502846208532
0.05604518177948128
0.05604537719840796
0.05604562235960618
0.05604592419541853
0.05604628881421752
0.05604672600629812
0.05604724851818463
0.05604786245331159
0.05604856792881602
0.05604936523335557
0.0560502574913742
0.05605125098861354
0.05605235461583086
0.05605357898385861
0.05605493585111172
0.05605643805310106
0.05605809962412461
0.0560599358808529
0.05606196348447335
0.05606420051961822
0.05606666657039423
0.05606938280197498
0.05607237204914195
0.05607565890651198
0.05607926982283078
0.05608323334473787
0.05608758129193737
0.05609235159934106
0.05609758546701822
0.05610329223426263
0.05610944421599807
0.05611607186584763
0.05612330307989451
0.05613127905294608
0.05614010192305026
0.05614986651188113
0.05616071747996314
0.0561727569436167
0.05618593501955437
0.05620030550064087
0.05621621777305055
0.05623409976260169
0.05625444604212466
0.05627763140171951
0.05630229497590957
0.05632397841796732
0.05634364866302974
0.05636482035075045
0.05638815922282386
0.05641321009083204
0.05644080630124548
0.05647175679873676
0.05650524310271327
0.0565407128120763
0.05657850017423154
0.05661877031466732
0.05666141373629361
0.05670647392096534
0.05675397093158998
0.05680385998432296
0.0568560704336375
0.05691049452905374
0.05696697868662973
0.05702532067650769
0.05708526673925578
0.05714650940035268
0.057208684797249
0.0572713896657821
0.05733413823310222
0.05739633435857654
0.05745732534352462
0.0575164825894521
0.05757328612561334
0.05762726273700245
0.05767814748390926
0.05772610233395692
0.05777158954565363
0.05781427607701402
0.05785239250118211
0.0578837021431005
0.05790718553100449
0.05792260879275041
0.05792920093867136
0.05792521891551256
0.05790606539118275
0.05786109000900143
0.057804493002009
0.05773870930676468
0.05588073503124572
0.0558807134725588
0.05588068907161747
0.05588066463859678
0.05588063773559432
0.05588060394012691
0.0558805576405005
0.05588049496520348
0.0558804192126264
0.05588034578036395
0.05588029290387175
0.05588026915198017
0.05588028137003605
0.05588034144027171
0.05588046230809933
0.05588065545303956
0.05588093010940211
0.05588129304390529
0.05588174849440952
0.05588229737585133
0.05588293465735508
0.05588365128312117
0.05588443803295431
0.05588528555019193
0.05588618760772158
0.05588713908402831
0.0558881319475542
0.05588915944337895
0.05589021896890495
0.05589131099874545
0.0558924371188543
0.05589359878491198
0.05589479675532568
0.05589603093319519
0.0558973003921626
0.0558986034141697
0.05589993750142215
0.05590129945610815
0.05590268542478999
0.05590408968072876
0.05590550126899128
0.05590690480644205
0.05590828390847481
0.05590962097366237
0.05591089653954767
0.05591208891645062
0.0559131739264161
0.05591412444497264
0.05591490954541969
0.05591549481623025
0.05591584914839574
0.055915944560369
0.05591574024478918
0.05591517843842579
0.0559142004843814
0.05591275429253881
0.05591077989767983
0.05590819321123941
0.05590490163826371
0.05590084868728243
0.05589601564694098
0.05589042865394842
0.05588418257382197
0.0558773444574428
0.05586967872354258
0.05586060909248576
0.05585018798950328
0.055838832387092
0.05582673671350012
0.05581580346491404
0.05580582849655366
0.05579554442004749
0.05578338311103739
0.0557693249273655
0.05575477610415507
0.05573951993731807
0.05572348805712866
0.05570681039641909
0.05568956396410425
0.05567183685104408
0.0556537612348855
0.05563549806249151
0.05561723833858512
0.05559920892086673
0.05558167275506418
0.05556492789531032
0.05554930038131359
0.05553515953299505
0.05552289809845146
0.05551287683508863
0.05550543134511842
0.0555008876628585
0.05549957665798079
0.0555016963501433
0.0555072869505231
0.05551642696925974
0.0555291518402657
0.05554485961197848
0.05556194877558336
0.05557881158853639
0.05559453814856792
0.05560795469040647
0.05561739812205695
0.05562180742131774
0.05562159141683205
0.05560860838654515
0.05559506346939747
0.05554373762822511
0.05412517807885184
0.05412518628631666
0.054125195573806
0.05412520482025177
0.05412521481325552
0.0541252271276256
0.05412524425597239
0.05412526917254322
0.05412530388245101
0.05412534734356608
0.05412539732032381
0.0541254547474023
0.05412552204533563
0.05412560043368702
0.05412569066133135
0.05412579354729595
0.05412591009665138
0.05412604146236684
0.05412618878889479
0.05412635335363646
0.05412653668433959
0.05412674017678118
0.05412696395690536
0.05412720501747648
0.05412746073505197
0.05412773523606835
0.05412803568130289
0.05412836651585948
0.05412873097445447
0.05412913277854547
0.0541295762941157
0.05413006647897221
0.05413060890538455
0.05413120978865577
0.0541318760195958
0.05413261526287725
0.05413343634254161
0.05413434951545794
0.05413536257861205
0.05413647007979401
0.05413765966733657
0.05413893557277209
0.05414031593576446
0.05414181768994818
0.05414345515074538
0.05414524145156541
0.05414718806467039
0.05414929607379518
0.05415154985597748
0.05415392482683603
0.05415639469388563
0.05415893522436698
0.05416153205990673
0.05416418503820532
0.05416689897821401
0.05416967094270599
0.05417248881399653
0.0541753371202502
0.05417820315860626
0.05418107565411485
0.05418392781109315
0.05418669657642378
0.05418930941732844
0.05419172401298952
0.05419397686885739
0.05419628795760101
0.05419883931747291
0.05420135052274724
0.05420357252914574
0.05420614577991696
0.05420896356752921
0.05421054033277778
0.0542120383468544
0.05421438096929015
0.05421694924663804
0.05421946928566883
0.05422178436699539
0.05422397898782417
0.05422596627011175
0.0542276586106442
0.05422899143184993
0.05422988270412436
0.05423024600432561
0.0542299947874159
0.05422904202175334
0.05422731030118841
0.05422472751166493
0.05422124543840037
0.05421685415491086
0.05421153385800944
0.05420524539020344
0.0541980377904393
0.05419003219569761
0.05418135124707325
0.05417207747117365
0.05416234686460179
0.05415254193220193
0.05414308226404705
0.0541341433064943
0.05412616606175016
0.05411999655249636
0.05411618795109292
0.05411495591081149
0.0541164325189895
0.05412367701619161
0.05412917678399724
0.05415151135548465
0.05411667624113943
0.0525192659130893
0.05251927401299029
0.05251928318284298
0.05251929230337116
0.05251930204973278
0.05251931361411135
0.05251932866756156
0.05251934913617164
0.05251937646556142
0.05251941016505153
0.05251944926596463
0.05251949441932007
0.05251954683539814
0.05251960745304392
0.05251967679284358
0.05251975525982741
0.05251984327191543
0.05251994130586727
0.05252004996176465
0.05252017003781859
0.05252030238215435
0.05252044707766459
0.05252060173378513
0.0525207620374771
0.05252092837039734
0.05252110662816586
0.05252130068487545
0.05252151157522793
0.05252174028127353
0.05252198810106289
0.05252225647889471
0.0525225469450609
0.05252286112803915
0.05252320077966573
0.05252356780795386
0.05252396431815294
0.05252439264374106
0.05252485528262245
0.05252535486006529
0.05252589548179044
0.05252648653079209
0.05252714183079182
0.05252787566718533
0.05252870322016975
0.0525296422759799
0.05253071234520088
0.05253191871818447
0.05253324284930924
0.05253467545415934
0.05253624290551585
0.05253798990428216
0.05253996093813726
0.05254218108090753
0.05254464346801921
0.05254732553654019
0.05255020275659458
0.05255324634677554
0.0525564180480567
0.05255966535713633
0.05256292315589275
0.05256613407127014
0.05256928573919259
0.05257240239903106
0.05257549236411881
0.05257852231358041
0.05258141864691974
0.05258415456208358
0.05258685293581703
0.05258979219558126
0.05259289726839192
0.05259600113061203
0.0525991397621475
0.05260283881993408
0.05260712593227647
0.0526109253127878
0.05261490183751343
0.05261984685136242
0.05262517572823207
0.05263091511628725
0.05263714918561419
0.05264390493072743
0.05265120304227774
0.0526590525189224
0.05266746265914025
0.05267642875818711
0.05268592593430008
0.05269590901052224
0.05270631149003758
0.05271705706877108
0.05272802786225159
0.05273907605037152
0.05275008132883566
0.05276092188275952
0.05277146939045059
0.05278158133444327
0.05279109757182927
0.05279995003952533
0.05280813428787292
0.05281553898784631
0.05282220730843318
0.05282834963671389
0.05283406328787799
0.05283952745108852
0.05284387513731831
0.05285053315249336
0.05284914805304709
0.05287295624778161
0.05283024739390837
0.05128710922547894
0.05128711638358494
0.05128712448745445
0.05128713253080937
0.05128714103198286
0.05128715083581774
0.05128716305677834
0.05128717897676946
0.05128719962520397
0.05128722486289729
0.05128725450827626
0.05128728870556601
0.05128732776962658
0.05128737264234318
0.05128742384566626
0.05128748170243133
0.05128754654052377
0.05128761875882085
0.05128769885562951
0.05128778742649211
0.05128788496273915
0.05128799103365353
0.05128810299623637
0.05128821804581019
0.05128833823033763
0.05128846793604071
0.05128860899841147
0.05128876204546011
0.05128892782716105
0.05128910727038423
0.05128930136969635
0.0512895111618384
0.05128973773086852
0.05128998221080527
0.05129024578477295
0.05129052968338831
0.05129083518264644
0.0512911636016607
0.05129151630197002
0.05129189469583537
0.05129230026719672
0.0512927346065199
0.05129319948879025
0.0512936969827244
0.05129422939489434
0.05129479882561368
0.05129540789994894
0.05129606888348346
0.05129681077303295
0.05129767194899376
0.05129869064993367
0.05129988094431081
0.05130122029387076
0.05130270097270206
0.05130436795045316
0.05130627908948528
0.05130844024575867
0.05131081589463981
0.05131337875401123
0.05131611139939266
0.05131899690243236
0.05132200201979394
0.05132505433190963
0.05132804639728322
0.05133088236894369
0.05133355108586402
0.05133610304830252
0.05133856010544143
0.0513409029142297
0.05134314053599792
0.05134541571360161
0.05134780949290816
0.0513503562113487
0.05135316307613594
0.05135635918420988
0.0513591931194014
0.05136187274997061
0.05136503350238903
0.05136854313971705
0.05137235251383394
0.0513765018996661
0.05138101785900619
0.05138593472297377
0.05139128026453189
0.05139708780247814
0.05140340664803867
0.05141028199828673
0.05141775432374949
0.0514258730163014
0.05143467916223254
0.05144421387321407
0.05145451859176791
0.05146559708148139
0.05147743646167501
0.05149000222732533
0.05150319984406217
0.05151692051198698
0.0515310385372582
0.05154528433256908
0.05155937104761135
0.05157303972579789
0.05158586285122527
0.05159777785926761
0.05160699231907537
0.0516180566848881
0.05161470412863529
0.05164253514522276
0.0515882177574161
0.05023187627464008
0.05023188231688923
0.05023188915720649
0.05023189593761966
0.05023190306462139
0.05023191118484669
0.05023192114346187
0.05023193393257248
0.0502319504319119
0.05023197085460132
0.05023199521537154
0.0502320231512883
0.05023205469296668
0.05023209083860962
0.05023213210158314
0.05023217874332141
0.05023223101472418
0.05023228922150771
0.05023235374210666
0.05023242502364952
0.05023250341648239
0.05023258851923604
0.05023267824305715
0.05023277081219411
0.05023286808904482
0.05023297323383053
0.05023308761615292
0.05023321179889711
0.05023334644946306
0.05023349237045187
0.05023365042391112
0.05023382151436984
0.05023400659240641
0.05023420665604474
0.05023442274950943
0.05023465596134747
0.0502349074223588
0.05023517830339362
0.0502354698133369
0.05023578319747826
0.0502361197354862
0.05023648073775375
0.0502368675387621
0.05023728148672326
0.05023772393231771
0.0502381962251079
0.05023869974375005
0.05023923602420484
0.05023980695244994
0.0502404145957632
0.05024106019779869
0.05024174610542284
0.05024249681432912
0.0502433732152255
0.05024444062444923
0.05024571197948303
0.05024716945575047
0.05024885026813809
0.05025079141448606
0.05025296601230171
0.05025533627516766
0.05025787697213326
0.05026056931983216
0.05026339204865821
0.05026630897891979
0.05026924487598147
0.05027207264041712
0.05027468865935217
0.0502770961467665
0.05027934580017597
0.05028148422445637
0.05028366460688168
0.050285987211393
0.05028841611713014
0.05029108949033437
0.05029397407449415
0.05029699393553758
0.05030013104796966
0.0503033079180986
0.05030673026162719
0.05031039246640889
0.0503143101899619
0.05031849927752698
0.05032298496488827
0.05032778354296318
0.05033290527154367
0.05033836304685647
0.05034416723258033
0.05035033365972803
0.05035686873379162
0.05036378370999064
0.05037110402491422
0.05037883879012809
0.05038700523873809
0.05039562873419432
0.0504047007710959
0.05041420007107936
0.05042412298131866
0.05043439801199402
0.05044493821250925
0.05045562072689599
0.05046610208865666
0.05047674089655396
0.05048501199358731
0.05049800711546143
0.05049277271699174
0.05052807173123675
0.05046364883850948
0.04926939238880648
0.04926939776159656
0.04926940384372605
0.04926940986672374
0.04926941617205858
0.04926942329038987
0.0492694319025456
0.04926944280095975
0.04926945671718368
0.04926947399654912
0.04926949475031164
0.0492695183404568
0.04926954460648053
0.04926957453779093
0.04926960861170196
0.04926964703184237
0.0492696899869878
0.04926973771562088
0.04926979051876936
0.04926984875778643
0.04926991271948183
0.0492699820665408
0.04927005503411749
0.04927013008235826
0.04927020876010711
0.04927029378251214
0.04927038635361863
0.0492704869792774
0.04927059626268704
0.04927071493630276
0.04927084379837399
0.04927098369994826
0.04927113554997165
0.04927130031860939
0.04927147903818743
0.04927167280335985
0.04927188277076947
0.04927211015803253
0.04927235624198601
0.04927262235616432
0.04927290988724846
0.04927322026990263
0.04927355497955715
0.0492739155232824
0.04927430342953584
0.04927472023813083
0.04927516749123648
0.04927564672155922
0.04927615943530469
0.04927670710313318
0.04927729120749658
0.04927791338683644
0.04927857537759602
0.0492792780124208
0.04928002095944007
0.04928081682099066
0.04928173073174008
0.04928283315208945
0.04928414555828912
0.04928571029107092
0.04928755164352398
0.04928962890564267
0.04929189961672441
0.04929433680615017
0.04929691982081566
0.04929962291804178
0.0493024038553166
0.04930519033495519
0.04930787538963857
0.04931036863420581
0.04931267503230825
0.04931482989587633
0.04931696158974116
0.04931931982969114
0.04932190963106244
0.04932452166630732
0.04932623772476834
0.04932817349313725
0.04933114603394226
0.04933428808797538
0.04933767071997467
0.04934132942954227
0.04934527796399933
0.04934952146648555
0.04935407121354821
0.0493589479875917
0.04936416723457118
0.04936973887898178
0.04937567670149442
0.04938198454026649
0.04938866364406216
0.04939571897334435
0.04940313668942448
0.04941090229859508
0.04941900231243562
0.04942740857763519
0.04943608142302811
0.04944498951326802
0.0494540486576459
0.04946319316964357
0.04947238989590162
0.049481247931044
0.04949057520558172
0.04949672633501498
0.04951010299415882
0.04950031737967633
0.04954143277725327
0.04946509151930785
0.04837947515503497
0.04837948005210586
0.04837948559553813
0.04837949108015872
0.0483794967984768
0.0483795031889744
0.04837951079242368
0.04837952022307204
0.04837953207331188
0.0483795467530445
0.04837956434475084
0.04837958417671955
0.04837960614574791
0.04837963111866361
0.04837965949548996
0.0483796914365946
0.04837972709057384
0.04837976664859442
0.04837981035538207
0.0483798585080502
0.04837991133558846
0.0483799685057952
0.04838002842109695
0.04838008978222296
0.04838015406149732
0.04838022357065501
0.04838029923675535
0.04838038148161226
0.04838047083431211
0.04838056793939757
0.04838067350613539
0.04838078830191921
0.04838091315928402
0.04838104898111469
0.0483811967444016
0.04838135750349773
0.04838153239312695
0.04838172263087684
0.0483819295189727
0.04838215444516544
0.04838239888233036
0.04838266438620102
0.04838295259076131
0.04838326520117611
0.04838360398426875
0.04838397075651793
0.0483843673696208
0.0483847956937617
0.04838525759917033
0.04838575493585391
0.04838628951077507
0.04838686306915087
0.04838747731488212
0.04838813411655953
0.04838883566151394
0.04838958353878945
0.04839037703241894
0.04839122125158905
0.04839217481078367
0.04839332107487621
0.04839470642554306
0.04839636156080069
0.04839827724354191
0.04840040916127896
0.04840272354375098
0.04840519750678322
0.0484078084774069
0.04841052403702266
0.04841329114192601
0.04841602335612394
0.04841860569242899
0.0484209635240037
0.04842310258746032
0.04842523021819681
0.04842773407286745
0.04843053708623931
0.04843347386938066
0.04843638785011419
0.04843919165288098
0.04844205009442581
0.04844514498269087
0.04844850215215422
0.04845210739654103
0.04845599540116299
0.04846018708962557
0.04846469484861028
0.04846953536909999
0.04847472306791734
0.04848027601785554
0.04848620528956434
0.04849251975810875
0.04849923040121567
0.04850633305147053
0.04851382275814665
0.04852168993176285
0.04852990439928491
0.04853841755140367
0.04854719118271454
0.04855614453517544
0.04856517239544082
0.04857423543043261
0.04858276188973346
0.04859209419320004
0.04859697092208466
0.04861173478114279
0.04859751282490098
0.04864498402523662
0.04855655969607613
0.04756834422554498
0.04756834868854938
0.04756835374054161
0.04756835873566454
0.04756836392806955
0.04756836968740494
0.04756837645428781
0.04756838471952315
0.04756839495493918
0.04756840746419003
0.04756842195965461
0.0475684381689692
0.04756845646780155
0.04756847727497392
0.04756850083684562
0.04756852729518713
0.04756855678515791
0.04756858946992223
0.04756862555668449
0.04756866529849121
0.04756870889462092
0.04756875608000898
0.04756880553988426
0.04756885622686186
0.04756890936028604
0.0475689668515035
0.04756902951401777
0.04756909773099974
0.04756917197639245
0.04756925282780996
0.0475693409256191
0.04756943696811931
0.0475695417187157
0.0475696560120838
0.04756978075914777
0.04756991695194529
0.0475700656684416
0.04757022807703121
0.04757040544043339
0.04757059911863137
0.04757081057044391
0.04757104135304343
0.04757129311938348
0.04757156761330127
0.04757186666209087
0.04757219216602811
0.04757254608437283
0.04757293041759053
0.04757334718563512
0.04757379840233381
0.04757428604619862
0.0475748120273785
0.04757537814813291
0.04757598606330726
0.04757663730069236
0.04757733344785558
0.04757807631490737
0.0475788670780087
0.04757970444580136
0.04758059210868808
0.04758158716981661
0.04758278576133191
0.04758425438841065
0.04758599455799999
0.04758796039521786
0.04759011566711786
0.04759243605908733
0.04759489839003136
0.0475974695592799
0.047600097751084
0.04760270600929777
0.04760518916505848
0.04760744503995623
0.0476095006255032
0.04761167300291664
0.04761416091216816
0.04761679556231666
0.04761848696629475
0.04762018041681192
0.04762280745305858
0.04762573703994645
0.04762882863722274
0.04763216306241867
0.04763575811425357
0.04763962077256988
0.04764377128399209
0.04764822709658498
0.04765300144722647
0.04765811088042646
0.04766356663606405
0.0476693783430025
0.04767555738366482
0.04768210354834866
0.04768901473324463
0.04769628205862756
0.04770389027251073
0.047711805919318
0.04771999240000968
0.04772836958361629
0.04773682782341729
0.04774542920466954
0.0477533489613082
0.04776268848305371
0.04776617880996511
0.04778281694313659
0.04776412801752314
0.04781882088610376
0.04771958669166423
0.04680969618786646
0.04680970021179082
0.04680970476666203
0.04680970926756872
0.04680971393350354
0.0468097190741518
0.04680972504933112
0.04680973226169268
0.04680974109914832
0.04680975179304733
0.04680976399918714
0.04680977777327459
0.04680979355726238
0.04680981141962537
0.04680983159621226
0.04680985424766936
0.04680987949700143
0.04680990748035541
0.04680993837167786
0.04680997238541634
0.04681000969000581
0.04681005005343644
0.0468100923513342
0.04681013576361303
0.04681018138828071
0.04681023081703783
0.04681028472795472
0.04681034345659858
0.04681040741711574
0.0468104771104678
0.04681055309160934
0.04681063596663998
0.04681072639972877
0.046810825119368
0.04681093292396222
0.04681105068768336
0.04681117936665271
0.04681132000525449
0.04681147374236123
0.04681164181712409
0.04681182557378928
0.04681202646504195
0.04681224605366592
0.04681248601245605
0.04681274812210166
0.0468130342666431
0.04681334642628593
0.0468136866673525
0.04681405712882899
0.04681446000493809
0.04681489752350236
0.0468153719203931
0.0468158854100942
0.04681644015033114
0.04681703819944706
0.0468176814962445
0.04681837195975413
0.04681911175226804
0.04681990290301902
0.04682074546386993
0.04682164180777073
0.04682263317816375
0.046823810212293
0.04682524139320351
0.04682692635455097
0.0468288325301276
0.0468309325718187
0.04683320482585434
0.04683562567834547
0.04683816272924393
0.0468407716927831
0.04684338761558021
0.04684588948689543
0.04684809723112193
0.04685000714554297
0.04685226388289839
0.04685500198060821
0.04685763760225396
0.04686047823697616
0.04686331617874166
0.0468659928238287
0.04686891328416219
0.04687207232447813
0.04687547587817144
0.04687913829310326
0.04688307200277061
0.04688729149489175
0.04689180870308251
0.04689663811548396
0.04690178963448446
0.04690727158506892
0.04691309290957088
0.04691925281881756
0.0469257507702113
0.04693257856163611
0.04693971741863083
0.04694713028244268
0.0469547867956473
0.0469626356166078
0.04697053847483709
0.04697865830542462
0.04698583856083555
0.04699519308922097
0.04699702623843489
0.04701570328357926
0.0469922621309073
0.04705383650034198
0.0469438907490855
0.04610850698233213
0.04610851093212483
0.04610851540302212
0.04610851981903522
0.04610852438810482
0.04610852939668909
0.04610853516461655
0.04610854203826175
0.04610855032682123
0.046108560197774
0.04610857138174387
0.04610858401445179
0.04610859837342708
0.04610861439361141
0.04610863234263612
0.04610865238419687
0.04610867461929453
0.04610869915798742
0.04610872614841661
0.04610875578044062
0.0461087882100867
0.04610882323127292
0.04610885977807463
0.04610889691538105
0.04610893556550268
0.04610897729696212
0.04610902275084303
0.04610907219584763
0.04610912597207854
0.04610918450416797
0.04610924826759217
0.0461093177855136
0.04610939363606707
0.04610947645907879
0.04610956696209186
0.04610966592665569
0.0461097742149869
0.04610989277684119
0.04611002265637409
0.04611016499878745
0.04611032105657561
0.04611049219515288
0.04611067989743412
0.0461108857668981
0.04611111152877882
0.04611135902922841
0.04611163023232227
0.04611192721473458
0.0461122521577108
0.04611260733551419
0.04611299509915009
0.04611341785403292
0.04611387803071438
0.04611437804889302
0.04611492027393556
0.04611550696180278
0.04611614019659561
0.04611682188589329
0.04611755389164045
0.0461183379364325
0.04611917421236002
0.04612006209114631
0.04612102304721368
0.04612214334219135
0.04612350082878046
0.0461250922627069
0.04612689189515926
0.04612888013513258
0.04613103990849527
0.04613334816959539
0.04613576967639624
0.04613825442933655
0.04614072400067876
0.04614303349338891
0.04614504281748596
0.04614703797995159
0.04614947812415182
0.04615196649183768
0.04615335742842108
0.0461549314457101
0.04615748018603179
0.04616019373864816
0.04616312280237631
0.04616627906755191
0.04616968064975413
0.04617334784433822
0.04617729556153849
0.04618153661164065
0.04618608587836899
0.04619095384818923
0.04619614931069654
0.04620168071041027
0.04620754727720949
0.04621374629342473
0.04622026498588178
0.04622708949853519
0.04623418700263745
0.04624151681199755
0.04624902654078164
0.04625653345627711
0.04626438205078211
0.04627093292809073
0.04628053496466306
0.0462806232777744
0.04630156880841001
0.04627315960866795
0.04634157836028158
0.04622222104779648
0.04543509971459362
0.04543510376841346
0.04543510835695861
0.04543511288661007
0.04543511756076628
0.04543512264872446
0.0454351284331878
0.04543513520120197
0.04543514317860551
0.04543515244709916
0.04543516279284189
0.04543517448279834
0.04543518762060701
0.04543520194959261
0.04543521777783432
0.04543523526869734
0.0454352544878031
0.04543527550511368
0.04543529843080218
0.04543532341727696
0.04543535058180732
0.04543537967554754
0.04543540958658925
0.04543543936200443
0.04543546996251792
0.04543550288171145
0.04543553859798659
0.04543557730131471
0.04543561926505141
0.04543566483958459
0.04543571442150713
0.04543576845353713
0.04543582743297828
0.0454358919195042
0.04543596254262283
0.04543604000972547
0.04543612511482011
0.0454362187478271
0.04543632190434194
0.0454364356958251
0.04543656136009629
0.04543670027183919
0.04543685395274496
0.0454370240809475
0.04543721249953347
0.04543742122412905
0.04543765244953452
0.04543790855501013
0.04543819210734257
0.04543850586035556
0.04543885274937767
0.04543923587924283
0.04543965850437157
0.04544012399911738
0.04544063581678014
0.04544119743468496
0.04544181228009889
0.04544248364570452
0.04544321467700083
0.04544400850474142
0.04544486802037546
0.04544579421653118
0.04544678824788456
0.04544788205591615
0.04544917467302299
0.04545072156433368
0.04545249294808765
0.04545447031450425
0.04545664484935402
0.04545900658225317
0.04546153769044347
0.04546421099135829
0.04546698385973278
0.04546974790463018
0.04547226499944852
0.04547442656766749
0.04547706888352691
0.04548023463546053
0.04548297674875054
0.04548573069426436
0.04548841728235183
0.0454912150939481
0.04549419417913722
0.04549741524459731
0.04550088400713805
0.04550460752213799
0.0455085994273846
0.04551287137267299
0.04551743591475008
0.04552230170373692
0.04552747594632731
0.0455329649662554
0.04553876682118979
0.04554487982088978
0.04555129202551127
0.04555798459543453
0.04556492036297448
0.04557205856615933
0.04557938233328521
0.04558663318391197
0.04559436233538913
0.04560033251167807
0.04561039973067519
0.04560870636061453
0.04563220223539519
0.04559899472772357
0.04567377611611117
0.04554591197869145
0.04480900806533093
0.04480901205463445
0.04480901657000013
0.04480902102579921
0.04480902561811498
0.04480903060574386
0.04480903626377275
0.04480904288339576
0.04480905072055241
0.04480905990276546
0.04480907030391579
0.04480908209592042
0.0448090951142088
0.04480910905484767
0.04480912428196433
0.04480914093698931
0.04480915903252694
0.04480917858553091
0.04480919965627064
0.04480922234794949
0.04480924673145137
0.04480927252774893
0.04480929862472233
0.04480932404513636
0.04480934970612428
0.0448093770674524
0.04480940655563515
0.0448094383119168
0.04480947256020235
0.04480950959840217
0.04480954976705639
0.04480959344897422
0.04480964107728507
0.04480969314278657
0.0448097502010569
0.04480981288021641
0.04480988188941307
0.04480995802793035
0.04481004219480685
0.04481013539877079
0.04481023876834526
0.04481035356191224
0.04481048117744425
0.04481062316181908
0.0448107812200998
0.04481095722526639
0.04481115322852504
0.04481137146954792
0.04481161438528315
0.04481188461593834
0.04481218500641689
0.04481251860145154
0.04481288863249851
0.04481329849373751
0.0448137517039794
0.04481425185183281
0.04481480252285121
0.04481540720923715
0.04481606921745652
0.04481679162964922
0.04481757728933441