/*--------------------------------*- C++ -*----------------------------------*\
| =========                 |                                                 |
| \\      /  F ield         | OpenFOAM: The Open Source CFD Toolbox           |
|  \\    /   O peration     | Version:  v1812                                 |
|   \\  /    A nd           | Web:      www.OpenFOAM.com                      |
|    \\/     M anipulation  |                                                 |
\*---------------------------------------------------------------------------*/
FoamFile
{
    version     2.0;
    format      ascii;
    class       surfaceScalarField;
    location    "0.00000121";
    object      phi;
}
// * * * * * * * * * * * * * * * * * * * * * * * * * * * * * * * * * * * * * //

dimensions      [0 3 -1 0 0 0 0];
oriented        oriented;


internalField   nonuniform List<scalar> 
87612
(
1.56946506364788e-06
3.233983181808616e-08
3.085340633240129e-06
9.749711355818022e-08
4.556920566334244e-06
1.650118670535254e-07
5.991965009754647e-06
2.365854831929246e-07
7.397434110771541e-06
3.132709980495666e-07
8.780843636573364e-06
3.948530072545599e-07
1.015123352214435e-05
4.802371981964625e-07
1.151841444386569e-05
5.691754250838013e-07
1.289090866604604e-05
6.63575213631205e-07
1.427566873803149e-05
7.657263783109614e-07
1.567872715671769e-05
8.773752598426776e-07
1.710534656955582e-05
1.000230150063633e-06
1.85601384315684e-05
1.135999616250004e-06
2.004718799473398e-05
1.286393804318169e-06
2.157018335156796e-05
1.45312893461669e-06
2.313253931274913e-05
1.637941994262829e-06
2.473750688002683e-05
1.842615711873926e-06
2.638827292878828e-05
2.069000039279944e-06
2.808806700603614e-05
2.319017933660374e-06
2.984028213122055e-05
2.594665548316573e-06
3.164858802105597e-05
2.89803540711026e-06
3.35170250761292e-05
3.231352749765584e-06
3.545002787300975e-05
3.597064776385674e-06
3.745238449960793e-05
3.997925321565116e-06
3.952914502603742e-05
4.437068159949999e-06
4.168560566559444e-05
4.917955840223877e-06
4.392742107285484e-05
5.444278329429675e-06
4.62604913838674e-05
6.020207509381633e-06
4.86906614114182e-05
6.650616919444812e-06
5.122350471545849e-05
7.34103168196268e-06
5.386420553467578e-05
8.097568578782327e-06
5.661749966436446e-05
8.926918467321325e-06
5.948764127202916e-05
9.836365429340701e-06
6.247836967416513e-05
1.083383592488074e-05
6.559286219822233e-05
1.192796624395056e-05
6.883367070509899e-05
1.312817714514433e-05
7.220264323704403e-05
1.444475225606697e-05
7.570083185470923e-05
1.588892105935984e-05
7.932838696455726e-05
1.747294776016835e-05
8.308443885221568e-05
1.92102261233727e-05
8.696696708976856e-05
2.111538097146558e-05
9.097265875946505e-05
2.320437667033887e-05
9.509675677380516e-05
2.54946329846823e-05
9.9332899380995e-05
2.800514926884997e-05
0.0001036729507096842
3.075663904733802e-05
0.0001081068195282925
3.377167857043602e-05
0.0001126222590443853
3.707487469993749e-05
0.000117204636995773
4.06930567456589e-05
0.0001218366723881113
4.465548635370281e-05
0.0001264981692094383
4.899405271772499e-05
0.0001311652754460396
5.374395651544538e-05
0.0001358097970214463
5.894388280165106e-05
0.0001404003071102865
6.463445364321364e-05
0.0001449051882366449
7.085656535270187e-05
0.0001492961095161229
7.765124729758233e-05
0.0001535484249743564
8.506306090183493e-05
0.0001576327831728963
9.314923668153845e-05
0.0001615106228472934
0.0001019761676556903
0.000165138025795215
0.0001116114649421906
0.0001684637924327818
0.0001221301848125583
0.0001714290123407281
0.0001336138230022212
0.0001739715855265131
0.0001461458969644243
0.0001760288990487352
0.0001598143705380636
0.0001775432266370354
0.0001747095625620499
0.0001784705801361046
0.0001909213825614486
0.0001787883301949386
0.0002085413100018205
0.0001784834846428876
0.0002276825515129105
0.0001775784821477152
0.0002484434127562094
0.0001761488260671979
0.0002709164240517683
0.0001743405961640211
0.0002951895138943643
0.0001722733352655613
0.0003214617787596842
0.0001700642274849658
0.0003499234376616788
0.0001676571705430053
0.0003809522948330818
0.0001650425386035332
0.000414724526000417
0.0001622330017463108
0.0004514602298682288
0.0001592125363217777
0.0004914519876253486
0.0001559684626258921
0.0005349837413767573
0.0001524929420118668
0.0005823634094147324
0.0001487773546976414
0.0006339322642049646
0.0001448141922744176
0.0006900598765538639
0.0001405972873660688
0.0007511484554990936
0.0001361220584535529
0.0008176357473830592
0.0001313857228884213
0.0008899982405357713
0.0001263876225018404
0.0009687545064871088
0.0001211295591268311
0.001054468950675569
0.0001156160199906987
0.001147756016336645
0.0001098544644031852
0.001249284579388
0.0001038553534980108
0.001359783057805683
9.763360053537076e-05
0.001480043273363076
9.121185268063506e-05
0.001610924369855253
8.461222889312243e-05
0.001753370618087874
7.785839320112492e-05
0.00190840789539251
7.097639458242463e-05
0.002077152339318964
6.399449883863352e-05
0.002260819432644312
5.694056266614629e-05
0.002460735255672656
4.983424726769796e-05
0.002678351220098926
4.271075623918152e-05
0.002915222966828548
3.557376117106331e-05
0.00317309252576851
2.831377964555119e-05
0.003453935215325444
2.088501125205228e-05
0.003759714633193766
1.320789625704787e-05
0.004092671573094831
5.154679233688566e-06
0.004455256959723489
-3.47337254476864e-06
0.004850157544778259
-1.297666475001062e-05
0.005280322711805186
-2.382115812659111e-05
0.005749018228176416
-3.675121232454269e-05
0.006259897595097786
-5.241865668594633e-05
0.006816542649761267
0.007351478237914058
5.838909746342838e-09
2.650093014304797e-08
2.306853591697165e-08
8.026749734202386e-08
5.173906758949727e-08
1.363413427270101e-07
9.206398309779506e-08
1.962605756256409e-07
1.439050153544699e-07
2.614299711200425e-07
2.05908204409584e-07
3.328498242914514e-07
2.753070368803159e-07
4.108383694445854e-07
3.493480023828736e-07
4.951344641439865e-07
4.273318782541835e-07
5.855913403308398e-07
5.102043401487272e-07
6.828539197830548e-07
5.989398232744352e-07
7.886397784657927e-07
6.943551495572993e-07
9.048148262460179e-07
7.974228620573099e-07
1.03293190493914e-06
9.092659385655747e-07
1.174550729613833e-06
1.03112306767119e-06
1.331271806323831e-06
1.164321262583655e-06
1.504743800668997e-06
1.310258931724809e-06
1.696678043288584e-06
1.470396999351425e-06
1.908861972624528e-06
1.646255046149614e-06
2.143159887238692e-06
1.839412263260305e-06
2.401508331917987e-06
2.051506665868189e-06
2.685941004766744e-06
2.284224715184508e-06
2.99863470097739e-06
2.539301410339414e-06
3.341988081403803e-06
2.818526860252743e-06
3.718699872044889e-06
3.123762496299492e-06
4.131832524021065e-06
3.456964693760246e-06
4.584753643057976e-06
3.820189070544856e-06
5.081053952723953e-06
4.215616374252674e-06
5.624780205900247e-06
4.645595719858327e-06
6.220637573892372e-06
5.112674347997268e-06
6.873953054001886e-06
5.619612830281824e-06
7.590630096537317e-06
6.169390491966984e-06
8.377140805782051e-06
6.765204949642482e-06
9.240550971693702e-06
7.410468633570674e-06
1.018857224107274e-05
8.108803562049987e-06
1.122963131549989e-05
8.864034175687615e-06
1.237294653160894e-05
9.680177503499157e-06
1.362860892828119e-05
1.056142994224053e-05
1.500766862071225e-05
1.151214998362422e-05
1.652222771881182e-05
1.253683605696709e-05
1.818554005011342e-05
1.364009822006609e-05
2.001211880839359e-05
1.482662152798545e-05
2.20178533624962e-05
1.610111832253464e-05
2.422013619016166e-05
1.746826737784096e-05
2.663800021361666e-05
1.893263956094968e-05
2.929226686425775e-05
2.049861322901179e-05
3.220570490244486e-05
2.217028780463744e-05
3.540320012434531e-05
2.395140815130398e-05
3.891193639906346e-05
2.584530663975869e-05
4.276158786528352e-05
2.785483683738083e-05
4.698452252017484e-05
2.998225073899732e-05
5.161654261387193e-05
3.222871267301189e-05
5.669742086771444e-05
3.459283498988045e-05
6.22703313263926e-05
3.706786555029793e-05
6.838153479237288e-05
3.963853041293096e-05
7.508058243500994e-05
4.22813675090842e-05
8.242022380578704e-05
4.497403522327863e-05
9.045656896741005e-05
4.7700258986818e-05
9.924994389228008e-05
5.044427975776676e-05
0.0001088674441713336
5.31871666634948e-05
0.0001193872979069953
5.590463108696496e-05
0.0001308963585788737
5.856416692306298e-05
0.0001434863611285422
6.11233496896232e-05
0.000157255187771678
6.353008358488951e-05
0.0001723028286670876
6.572408384697224e-05
0.0001887273822996574
6.763552819946321e-05
0.0002066298656497928
6.921040375127137e-05
0.0002261076759616277
7.039246537478568e-05
0.0002472613511335453
7.115264817919596e-05
0.0002701562412483871
7.148749324556732e-05
0.0002948546688294117
7.151042285904484e-05
0.000321438849147541
7.145156269319497e-05
0.0003499822978290327
7.146024869546805e-05
0.0003809436088319133
7.14923027425192e-05
0.0004146924719546498
7.151381287478306e-05
0.0004514387197367703
7.153379598378145e-05
0.0004914320045174036
7.154339962039255e-05
0.0005349741377407095
7.153409223089969e-05
0.0005823727168050554
7.149717299326922e-05
0.0006339691834429639
7.142162020360053e-05
0.0006901354293441977
7.129446638699891e-05
0.0007512756093159221
7.110044836395663e-05
0.000817829765406602
7.082185814881502e-05
0.0008902768307510229
7.043834116486687e-05
0.0009691380234714389
6.99266879340652e-05
0.001054980603906374
6.926074748322061e-05
0.00114842195678778
6.841133547141323e-05
0.001250133991399751
6.73463391968421e-05
0.001360848054080479
6.602974026418792e-05
0.001481359872295659
6.441779063202113e-05
0.001612536319487593
6.246788559238891e-05
0.001755320523127436
6.013664360565119e-05
0.001910739137379406
5.737921605785336e-05
0.002079909766866688
5.414909852774743e-05
0.002264049550174575
5.04001977094768e-05
0.002464484156490876
4.606184126298122e-05
0.00268268957654557
4.106658008586575e-05
0.002920218228005602
3.537856805349643e-05
0.003178780537800989
2.903799009748811e-05
0.003460275793281423
2.200995252308327e-05
0.003766742670768272
1.426665041392581e-05
0.004100414875203989
5.784421818606215e-06
0.0044637391883189
-3.447454787149634e-06
0.004859389421384049
-1.342837085694712e-05
0.005290303627875003
-2.41070431317257e-05
0.005759696900451246
-3.53675720017837e-05
0.006271158123967844
-4.647708321736281e-05
0.006827652160976844
0.007305001154696696
-5.128418202815861e-09
3.162935680660459e-08
-2.066157144033575e-08
9.580066118804056e-08
-4.704102863765702e-08
1.627208094341319e-07
-8.4966034683941e-08
2.341855913810793e-07
-1.352443737080619e-07
3.117083181199314e-07
-1.984208194827889e-07
3.960262779423017e-07
-2.74168008552437e-07
4.865855642353366e-07
-3.607608841032122e-07
5.817273450136425e-07
-4.551367613355427e-07
6.799672209050874e-07
-5.535157370580154e-07
7.812328986987815e-07
-6.522698485877926e-07
8.873938918606905e-07
-7.480122259051174e-07
1.000557205495098e-06
-8.37291202502977e-07
1.12221088256475e-06
-9.165740167996066e-07
1.253833545097231e-06
-9.822707145384923e-07
1.39696850463077e-06
-1.030763629925417e-06
1.553236716805174e-06
-1.058433031821142e-06
1.724347445500767e-06
-1.061683917922284e-06
1.912112859218527e-06
-1.036990171363252e-06
2.118466140857136e-06
-9.80965309614954e-07
2.34548347050828e-06
-8.904344182381013e-07
2.595410113491462e-06
-7.62497187354287e-07
2.87069747033734e-06
-5.945416451953354e-07
3.174032539304896e-06
-3.842202367785653e-07
3.508378463811328e-06
-1.294202984933528e-07
3.877032585774147e-06
1.717504497942468e-07
4.283582894914719e-06
5.20926902394511e-07
4.731877500146543e-06
9.195994906097616e-07
5.22610761779969e-06
1.369364702903998e-06
5.7708723616161e-06
1.872095882172705e-06
6.371221874830321e-06
2.430022253977514e-06
7.032703724744845e-06
3.045750087513058e-06
7.761412972328469e-06
3.722254731024831e-06
8.564046328191554e-06
4.462865596846126e-06
9.447961375322676e-06
5.271255467871921e-06
1.042124144448091e-05
6.151435779202787e-06
1.149276622034074e-05
7.107755790011988e-06
1.26722889174777e-05
8.144904051290897e-06
1.397052035948777e-05
9.267910860733128e-06
1.539922090937298e-05
1.048210816908033e-05
1.697134274181414e-05
1.17929030919493e-05
1.870132388552914e-05
1.320558013347866e-05
2.060517632100906e-05
1.472529065563941e-05
2.270042566800211e-05
1.635701888954548e-05
2.500627197974643e-05
1.810552134925771e-05
2.754376440454695e-05
1.997523711226882e-05
3.033598913946398e-05
2.197016628494999e-05
3.34082709516625e-05
2.409371197457356e-05
3.678839070946413e-05
2.634847398535491e-05
4.050682585450123e-05
2.873597401126316e-05
4.459702249428402e-05
3.125681715275711e-05
4.909569947237704e-05
3.39110726996054e-05
5.404316532087819e-05
3.669779014764775e-05
5.948361387835202e-05
3.961396136108279e-05
6.546536357894538e-05
4.265352233484076e-05
7.204102146125127e-05
4.580615085181533e-05
7.926759528881337e-05
4.905612159117148e-05
8.720659822805758e-05
5.238172941117439e-05
9.592433607227255e-05
5.575666809954236e-05
0.0001054925054829696
5.915499898103235e-05
0.0001159889670254941
6.255302765648113e-05
0.0001274983299034379
6.592721615284591e-05
0.0001401121726321619
6.925325479763737e-05
0.0001539291491269065
7.250410203033051e-05
0.0001690519814343688
7.564602528423639e-05
0.0001855854590457868
7.862844199500679e-05
0.0002036474489389786
8.136688749807212e-05
0.0002233692304586124
8.375982188629109e-05
0.0002448684167452339
8.565254636938651e-05
0.0002682635167653923
8.685497353125104e-05
0.0002936522416673879
8.726419828759645e-05
0.0003210296243914567
8.687521790086204e-05
0.0003503712782154876
8.606429385144746e-05
0.0003817545328818138
8.513682596473414e-05
0.0004156199398411127
8.41830118649729e-05
0.0004523925338371369
8.314256282723875e-05
0.0004924724535549364
8.201867745314699e-05
0.000536098023115522
8.080951351918406e-05
0.0005835818807389038
7.950918748376835e-05
0.0006352695094792235
7.811309391570002e-05
0.0006915315229122129
7.661632811114744e-05
0.0007527723751213758
7.501422547418439e-05
0.0008194318680436218
7.330171947251802e-05
0.0008919893367536277
7.147330730586606e-05
0.0009709664356382405
6.952339242274093e-05
0.001056930518790455
6.744569984925311e-05
0.001150499649361482
6.523313266187842e-05
0.00125234655858806
6.287747111004885e-05
0.001363203715632606
6.03692967664286e-05
0.001483868046640144
5.76833968424225e-05
0.001615222219411947
5.480027977319796e-05
0.001758203640197444
5.170049599102481e-05
0.00191383892116194
4.83616125557422e-05
0.002083248650302642
4.475765079015997e-05
0.002267653511940495
4.085837483264362e-05
0.002468383432448972
3.666132963815455e-05
0.002686886621740393
3.214135201696724e-05
0.002924738205627244
2.726462366143749e-05
0.003183657266156915
2.200903607856053e-05
0.003465531380864651
1.632666744415223e-05
0.003772425039403146
1.016357198536369e-05
0.004106577970663029
3.459278614752313e-06
0.004470443481689899
-3.862053102560917e-06
0.004866710753101478
-1.188953346897246e-05
0.005298331108241611
-2.073592035932237e-05
0.005768543287341575
-3.056426484773044e-05
0.006280986468456249
-4.078358528355597e-05
0.00683787148141267
0.007264217569413144
1.754214389045313e-09
2.987513823725858e-08
7.067845474653271e-09
9.04870250804744e-08
1.609217230836123e-08
1.53696477332234e-07
2.906495059958516e-08
2.212128080824245e-07
4.625781985709658e-08
2.945154441067495e-07
6.786954476459396e-08
3.744145487127908e-07
9.390563618287227e-08
4.605494691854878e-07
1.24151705692801e-07
5.514812724630227e-07
1.58308907003335e-07
6.458100173495658e-07
1.962110270896007e-07
7.433307767406262e-07
2.379278059131051e-07
8.456771117077163e-07
2.836436325399989e-07
9.548413777258774e-07
3.335923343171085e-07
1.072262180011313e-06
3.880891299455052e-07
1.199336748769292e-06
4.475329241445893e-07
1.337524709972721e-06
5.124056975762547e-07
1.488363942939213e-06
5.832732205234788e-07
1.653479922280397e-06
6.607873816019739e-07
1.834598697861716e-06
7.456891222377116e-07
2.033564400053496e-06
8.388097132371086e-07
2.252362879325632e-06
9.410749794062075e-07
2.493144847217268e-06
1.053515110151352e-06
2.758257339464583e-06
1.177256114190286e-06
3.050291535198291e-06
1.313474146995721e-06
3.372160430912664e-06
1.463367710108593e-06
3.727139022614408e-06
1.628216765529077e-06
4.118733839424882e-06
1.80944286716892e-06
4.550651398475225e-06
2.008614383690482e-06
5.026936101222336e-06
2.227458311502791e-06
5.552028433781381e-06
2.467875938382699e-06
6.130804247904422e-06
2.731961960788148e-06
6.768617702323899e-06
3.022026710603025e-06
7.471348222475011e-06
3.340621256419095e-06
8.245451782366358e-06
3.690565315130651e-06
9.09801731657822e-06
4.074978013227778e-06
1.003682874637895e-05
4.4973115323442e-06
1.107043270119458e-05
4.961387676968692e-06
1.220821277285235e-05
5.471437217754609e-06
1.346047081867478e-05
6.032141673053025e-06
1.483851645407757e-05
6.648680823065286e-06
1.635480359177796e-05
7.326799068501557e-06
1.802320564009908e-05
8.07286992141076e-06
1.985910546807717e-05
8.893942827437205e-06
2.187935276198453e-05
9.797791308310786e-06
2.410242349885155e-05
1.079296159007389e-05
2.654859412279658e-05
1.188881880344166e-05
2.924013192607646e-05
1.30955856229631e-05
3.220150413215713e-05
1.442397522346355e-05
3.546000110894574e-05
1.588446226760613e-05
3.904633881037915e-05
1.748692162649538e-05
4.29945631353775e-05
1.924055513967842e-05
4.734206595921694e-05
2.115375210517573e-05
5.212996835536291e-05
2.32338937938673e-05
5.740347218968748e-05
2.548716510806278e-05
6.321209226473241e-05
2.791832949102428e-05
6.960985707832344e-05
3.053012979561606e-05
7.665579498420317e-05
3.332232020754073e-05
8.441440781617321e-05
3.629054108287286e-05
9.295611519692421e-05
3.942538143052846e-05
0.000102357665135365
4.271182352328203e-05
0.0001127025249327214
4.612888240699156e-05
0.0001240812710197928
4.964916872322403e-05
0.0001365918863159138
5.323863267491211e-05
0.0001503396851753081
5.685386574928507e-05
0.0001654367483599974
6.043854403955481e-05
0.0001820007807556386
6.393258709710067e-05
0.0002001534058814788
6.72840526428569e-05
0.0002200177649130295
7.044100229083984e-05
0.0002417114670973893
7.333212171562711e-05
0.0002653723973408778
7.584824759836988e-05
0.0002911361157849634
7.776592357392694e-05
0.0003191119484164214
7.880582195673088e-05
0.000349331379833375
7.889421677266646e-05
0.0003816661380667154
7.839590100340442e-05
0.0004161182556113689
7.767815689982256e-05
0.0004531102779415936
7.696884288404409e-05
0.0004931817675717002
7.619465588068854e-05
0.0005368722101195526
7.533433351849019e-05
0.0005844422031019506
7.438815900776195e-05
0.0006362156839904498
7.334723961979425e-05
0.0006925724423009043
7.22036897564794e-05
0.0007539159249850174
7.09471400270682e-05
0.0008206884177735902
6.956752108371329e-05
0.000893368955697175
6.805466712462895e-05
0.0009724792895977262
6.639623761874855e-05
0.00105858894829645
6.457972141410538e-05
0.0011523161655664
6.259220497801728e-05
0.001254334075024207
6.04202094917211e-05
0.001365375711119103
5.804986892638257e-05
0.001486238387205538
5.547742183282043e-05
0.001617794666505677
5.269029599580423e-05
0.001760990766034511
4.967496566793356e-05
0.001916854251489976
4.641729090721162e-05
0.002086506325063429
4.290233817448763e-05
0.002271168464673413
3.911424610601347e-05
0.002472171524517505
3.503555045301712e-05
0.002690965317393575
3.064656432048494e-05
0.002929127191759845
2.592449060779079e-05
0.003188379339869709
2.08436216843996e-05
0.003470612249788096
1.537285877705653e-05
0.003777895802310507
9.475322957999172e-06
0.004112475506482143
3.106699146793723e-06
0.004476812105501137
-3.792835536527274e-06
0.004873610287784906
-1.128633170117031e-05
0.005305824604406323
-1.943883273441348e-05
0.005776695788374945
-2.832402884118463e-05
0.006289871664563094
-3.687075282682705e-05
0.006846418205398374
0.007227346816586318
1.570285164960107e-09
2.830484917301883e-08
6.32618511716523e-09
8.573112054438777e-08
1.440173807679792e-08
1.456209202123226e-07
2.60060150988953e-08
2.096085269114879e-07
4.136995905766722e-08
2.791514966269651e-07
6.062742172463093e-08
3.551570826088046e-07
8.365946574592396e-08
4.375174226233703e-07
1.100575807726645e-07
5.250831550325434e-07
1.393217473033839e-07
6.165458492843326e-07
1.711353643341591e-07
7.115171582144816e-07
2.055547849330363e-07
8.112576902522066e-07
2.427613993715328e-07
9.176347623592264e-07
2.828960513969639e-07
1.032127527511735e-06
3.261482242493054e-07
1.156084575334118e-06
3.727625265713763e-07
1.290910407396233e-06
4.23033961602218e-07
1.438092507534292e-06
4.773031947233659e-07
1.59921068902574e-06
5.359539998183749e-07
1.775947892519032e-06
5.994140447872693e-07
1.970104355016749e-06
6.681612734319017e-07
2.183615650510245e-06
7.427289475745766e-07
2.418577173043771e-06
8.23704506287489e-07
2.677281780628544e-06
9.117118578516147e-07
2.962284183623603e-06
1.007355470322761e-06
3.27651681834849e-06
1.111266222573392e-06
3.623228270363772e-06
1.224183133103851e-06
4.00581692882104e-06
1.34692509340949e-06
4.427909438175276e-06
1.480373054857067e-06
4.89348813971539e-06
1.625474474228773e-06
5.406927014419809e-06
1.783247870833923e-06
5.973030851251368e-06
1.954787531327977e-06
6.597078041842762e-06
2.141268374475567e-06
7.284867379287932e-06
2.343950898425044e-06
8.042769258432194e-06
2.56418651884359e-06
8.877781696126003e-06
2.80342360426046e-06
9.797591660980264e-06
3.063214120989001e-06
1.081064218443793e-05
3.345221079330506e-06
1.192620581453241e-05
3.651226866288726e-06
1.315446503169387e-05
3.983142994696249e-06
1.450660032569293e-05
4.343059717378574e-06
1.599488686907771e-05
4.733464872803051e-06
1.76328004847008e-05
5.15743706054585e-06
1.943513328032143e-05
5.618669302111353e-06
2.141812052044904e-05
6.121512748869267e-06
2.359958005208394e-05
6.671042051850023e-06
2.59990648198481e-05
7.273142548530302e-06
2.863803142939255e-05
7.934618515981156e-06
3.154002816474179e-05
8.663357222791136e-06
3.473126240213689e-05
9.468550761034486e-06
3.824114527217621e-05
1.036092534079678e-05
4.210218855562158e-05
1.135299684468187e-05
4.634999445537595e-05
1.245937572273422e-05
5.102358947732245e-05
1.369622074062543e-05
5.616662717184598e-05
1.507983555840944e-05
6.182847744696721e-05
1.662589716500509e-05
6.80637954717824e-05
1.834937438632964e-05
7.493231776290241e-05
2.026436161837412e-05
8.249942058419449e-05
2.238368679685396e-05
9.083679001847393e-05
2.471810345087734e-05
0.0001000232484814151
2.727492745181447e-05
0.0001101457009318278
3.005613642324736e-05
0.0001213000620484531
3.305623840333749e-05
0.0001335917843358974
3.626077868632852e-05
0.0001471351448924382
3.964400924372381e-05
0.000162053517802721
4.316529900855722e-05
0.0001784794909909604
4.676545426347584e-05
0.0001965532506267428
5.036515039874933e-05
0.0002164180687779505
5.386429060856095e-05
0.0002382123268878429
5.717664960902815e-05
0.0002620600383406747
6.024435997092758e-05
0.000288068405423453
6.297915599934039e-05
0.0003163771523884225
6.517059133646034e-05
0.0003471399444969564
6.64668743135691e-05
0.000380369855090359
6.671956962618346e-05
0.0004158655602999145
6.626073506428442e-05
0.0004535691125044601
6.558263327666042e-05
0.0004938598693605321
6.488716595381025e-05
0.0005375676774431688
6.414748252775717e-05
0.0005851818865290099
6.33419543784224e-05
0.0006370212121403751
6.246737345864526e-05
0.0006934470232214354
6.15155864740365e-05
0.0007548677119700876
6.048010112627953e-05
0.0008217239031219315
5.935252728806829e-05
0.0008944965295357705
5.812337915941515e-05
0.0009737084377268145
5.678353586794229e-05
0.001059928791588247
5.532241571791114e-05
0.001153777285716775
5.372831975308202e-05
0.001255928170989314
5.198842056411069e-05
0.001367115610308321
5.00887379048538e-05
0.001488138069865042
4.801675447871146e-05
0.001619866649931994
4.57567033626126e-05
0.00176325081715081
4.32911943102431e-05
0.001919319760542456
4.060147431001448e-05
0.002089196045063863
3.766710805215708e-05
0.002274102830931337
3.446628273250624e-05
0.002475372349837332
3.097638219973763e-05
0.002694455217926447
2.717209867118452e-05
0.002932931475288579
2.302634986704557e-05
0.003192525088674058
1.850965275590153e-05
0.003475128946899425
1.359556246079244e-05
0.003782809892605909
8.253104859699947e-06
0.004117817964083384
2.446873044272019e-06
0.004482618337316837
-3.850813638944008e-06
0.004879907974468231
-1.068159898835518e-05
0.005312655389755892
-1.808765363205454e-05
0.005784101843018648
-2.612880156504363e-05
0.006297912812496108
-3.354687871978381e-05
0.006853836282553135
0.007193799937866534
1.268603923811168e-09
2.703624464332722e-08
5.110878744047505e-09
8.188884466557581e-08
1.163533094525586e-08
1.390964676866804e-07
2.101195236651554e-08
2.002319048256563e-07
3.343050048830314e-08
2.667329484625344e-07
4.90022083274567e-08
3.395853744270815e-07
6.762285198569076e-08
4.188967790722035e-07
8.892414963290684e-08
5.037818572451875e-07
1.124322855597671e-07
5.930377135116404e-07
1.377945022545162e-07
6.861549414778329e-07
1.650265719542502e-07
7.840256206940217e-07
1.942801409917846e-07
8.883811933145984e-07
2.256438478353351e-07
1.000763820786005e-06
2.592435466430845e-07
1.122484876529879e-06
2.952501946022339e-07
1.254903759532491e-06
3.338758991281025e-07
1.399466803014309e-06
3.753698635768534e-07
1.557716724654138e-06
4.200160623750712e-07
1.731301693729703e-06
4.681326542670529e-07
1.921987763189783e-06
5.200726229163632e-07
2.131675681867426e-06
5.762245738836617e-07
2.362425222134054e-06
6.370114125190807e-07
2.616494942003273e-06
7.028820982792911e-07
2.896413497914193e-06
7.742866736759038e-07
3.205112242964217e-06
8.517141092604474e-07
3.545800834827165e-06
9.357233557668667e-07
3.921807682330787e-06
1.026915915182544e-06
4.336716878804483e-06
1.12593903070305e-06
4.794465024212774e-06
1.23348903711344e-06
5.299377008053308e-06
1.350314813065983e-06
5.85620507532034e-06
1.477221338289357e-06
6.470171516660586e-06
1.615073352675643e-06
7.147015364926106e-06
1.764799114719746e-06
7.893043496428534e-06
1.927394254429835e-06
8.71518655644385e-06
2.103925715885826e-06
9.621060199562259e-06
2.295535779740448e-06
1.061903212061433e-05
2.503446146282378e-06
1.171829544802793e-05
2.728962106562864e-06
1.292894907144811e-05
2.973476887573304e-06
1.426208554471866e-05
3.238476495423021e-06
1.572988726126574e-05
3.5255453361454e-06
1.734573164401347e-05
3.83637243708136e-06
1.912430617942679e-05
4.172758675577933e-06
2.108173428198431e-05
4.53662573040105e-06
2.323571299730647e-05
4.930026665395746e-06
2.560566388488429e-05
5.355159254602529e-06
2.821289884023476e-05
5.81438454414901e-06
3.108080287522231e-05
6.310610819835556e-06
3.423503612650307e-05
6.848000607206586e-06
3.770375548482988e-05
7.432333098294739e-06
4.151785606459043e-05
8.071089299823337e-06
4.571123825386816e-05
8.773570803652934e-06
5.03211079735539e-05
9.55110827276997e-06
5.53890897027475e-05
1.041734582809406e-05
6.096223989170755e-05
1.138848772189304e-05
6.709265357799685e-05
1.248325934326221e-05
7.383754614160295e-05
1.372084499457323e-05
8.126183493289228e-05
1.511903040593731e-05
8.943860460718462e-05
1.669479680891582e-05
9.844748207843877e-05
1.84650094168783e-05
0.0001083754883239451
2.044694473877451e-05
0.0001193181267265499
2.26580195574582e-05
0.0001313807095172913
2.511327825391074e-05
0.000144679886195968
2.782149276594879e-05
0.0001593453032907564
3.07799761471024e-05
0.0001755210076097711
3.396801399961043e-05
0.0001933652127742972
3.734091265895886e-05
0.0002130451701185431
4.08216156875917e-05
0.0002347316238592536
4.429597725803359e-05
0.0002585856767701446
4.762339677301321e-05
0.0002847409859084901
5.070039083144083e-05
0.0003133001583298592
5.346252567703485e-05
0.0003443778096513383
5.571954829275892e-05
0.0003781128324743738
5.706234393281008e-05
0.0004145227646597395
5.73166106032901e-05
0.0004533148458335068
5.683356882159366e-05
0.0004943429111419863
5.621289175825461e-05
0.0005381883545059317
5.554367599651175e-05
0.0005858511022904741
5.481748464537334e-05
0.0006377474034909406
5.402673733168878e-05
0.0006942377705348336
5.316640799467454e-05
0.0007557280413065541
5.223007347463308e-05
0.0008226602376416683
5.121122317490841e-05
0.0008955153798349829
5.010259117566075e-05
0.0009748170697257558
4.889623116615283e-05
0.001061135151597297
4.75836122241463e-05
0.001155089904658484
4.615537832880271e-05
0.001257356404884254
4.460129433858187e-05
0.001368669694298275
4.291014103632634e-05
0.001489829223166965
4.107107323311589e-05
0.001621705717734962
3.907245853899208e-05
0.001765249431844684
3.689977439685814e-05
0.001921492444684404
3.453698405409869e-05
0.002091558835406426
3.196654860053049e-05
0.002276673266384775
2.916909365800447e-05
0.002478169804779727
2.612266394801297e-05
0.002697501647636316
2.280390338202451e-05
0.002936250235854472
1.918751030113543e-05
0.003196141481754775
1.524743012772265e-05
0.003479069027072759
1.095213289769339e-05
0.00378710518983574
6.26976324287619e-06
0.004122500333738158
1.167743307497653e-06
0.004487720357252069
-4.388640193893529e-06
0.004885464357969604
-1.044005541943094e-05
0.005318706804981365
-1.702281836568219e-05
0.005790684605964924
-2.419125522338067e-05
0.006305081249353804
-3.055890434216668e-05
0.006860203931671917
0.007163241033524363
9.861850417977978e-10
2.605005847800121e-08
3.973177404888086e-09
7.890185085127832e-08
9.04561533550917e-09
1.340240286139534e-07
1.633720339003766e-08
1.929403154629324e-07
2.60015886758385e-08
2.570685622440408e-07
3.814168439662676e-08
3.274452776120329e-07
5.270538780529494e-08
4.04333075010364e-07
6.943453166262021e-08
4.870527125978952e-07
8.796745650489053e-08
5.745047882968683e-07
1.08015404234733e-07
6.661069932387705e-07
1.29573533771389e-07
7.624674909790722e-07
1.527470021847461e-07
8.652077245815247e-07
1.775937515202612e-07
9.759170713793715e-07
2.04203414529242e-07
1.095875213316339e-06
2.327024263243293e-07
1.226404747722273e-06
2.632503467879778e-07
1.368918882419939e-06
2.960361567837734e-07
1.524930914674004e-06
3.312758419276002e-07
1.69606200850007e-06
3.692113255865786e-07
1.884052279558703e-06
4.101105727632903e-07
2.09077643463446e-06
4.542686011239175e-07
2.318267193806043e-06
5.020088490999536e-07