/*--------------------------------*- C++ -*----------------------------------*\
| =========                 |                                                 |
| \\      /  F ield         | OpenFOAM: The Open Source CFD Toolbox           |
|  \\    /   O peration     | Version:  v1812                                 |
|   \\  /    A nd           | Web:      www.OpenFOAM.com                      |
|    \\/     M anipulation  |                                                 |
\*---------------------------------------------------------------------------*/
FoamFile
{
    version     2.0;
    format      ascii;
    class       volVectorField;
    location    "0.00000121";
    object      U;
}
// * * * * * * * * * * * * * * * * * * * * * * * * * * * * * * * * * * * * * //

dimensions      [0 1 -1 0 0 0 0];


internalField   nonuniform List<vector> 
44064
(
(0.02916254181134873 2.062100973978425e-05 9.039348847679044e-20)
(0.08709650404468294 6.147037495604318e-05 2.513363939698491e-19)
(0.1450636125005874 0.0001007408593000865 4.357243183615672e-19)
(0.2031909872180098 0.0001388319679747569 6.231329576778744e-19)
(0.2607091284266287 0.0001761628101281301 8.322586367623051e-19)
(0.3153312427026055 0.0002130139223941287 1.053636435704942e-18)
(0.3640474965876658 0.0002494527682202686 1.253452870642195e-18)
(0.4053476532423967 0.0002852273526713168 1.409367634847973e-18)
(0.4404371835609678 0.0003209937738994627 1.543612800157518e-18)
(0.470858776972198 0.0003572728941632259 1.638430241756932e-18)
(0.4974515172425812 0.0003939188887954901 1.722668764923141e-18)
(0.5209121260286509 0.0004310895442469305 1.798314998358321e-18)
(0.5418281229163808 0.0004689408998276228 1.867066783345546e-18)
(0.5606820541970702 0.0005075914651769749 1.930366935902191e-18)
(0.5778630162390308 0.0005471413812350042 1.975795220072548e-18)
(0.5936819613768283 0.0005876825882343424 2.018755500187216e-18)
(0.6083867885537546 0.0006293019054154864 2.059755747792136e-18)
(0.6221754539428539 0.0006720832499036645 2.099168360910004e-18)
(0.6352066827048529 0.0007161102814001768 2.137324531189692e-18)
(0.6476084464896369 0.0007614694437002552 2.154081418186114e-18)
(0.659484559292894 0.0008082531565853684 2.170909981519508e-18)
(0.6709197631459993 0.0008565626453298997 2.168835890364167e-18)
(0.6819836330017881 0.0009065095181026479 2.14876831849132e-18)
(0.6927335756821281 0.0009582152716751941 2.129957115608749e-18)
(0.7032171405937803 0.001011809286281375 2.094040439199771e-18)
(0.7134738050782953 0.001067428091799091 2.059396928578279e-18)
(0.7235363442103552 0.001125216531886824 2.00783335995938e-18)
(0.733431868958123 0.001185326997611344 1.957276149202707e-18)
(0.74318263613486 0.001247914951295285 1.907669859363544e-18)
(0.75280672186949 0.001313131577925931 1.858919508080247e-18)
(0.7623186039501073 0.001381118828489645 1.810981067164331e-18)
(0.7717296692087583 0.001452007214568915 1.763993852528172e-18)
(0.7810486500570141 0.001525914855840764 1.680394103427886e-18)
(0.7902819916875314 0.001602946755433129 1.596708146761765e-18)
(0.7994341532886711 0.001683193819919819 1.513127692070741e-18)
(0.8085078488593433 0.001766731422808365 1.429652705515344e-18)
(0.8175042337281688 0.001853617531380658 1.346288282704053e-18)
(0.8264230416230925 0.001943890446361586 1.263428924318002e-18)
(0.8352626749027082 0.002037566195332127 1.097388614183087e-18)
(0.8440202484373988 0.002134635587865376 9.281823488691196e-19)
(0.8526915874127984 0.002235060953037323 7.561462856782798e-19)
(0.8612711843075356 0.002338772584328463 4.900737231610817e-19)
(0.8697521350879667 0.002445664913096025 2.143688361632194e-19)
(0.8781261036514849 0.002555592411099878 2.379919145381622e-20)
(0.8863834058512393 0.002668365153766754 2.672334994785149e-20)
(0.894513343376364 0.00278374384679881 -1.766519871511706e-19)
(0.9025049045102924 0.002901433997326946 -1.795639610188622e-19)
(0.9103477866189144 0.003021079216217851 -1.829718705692742e-19)
(0.9180332442566239 0.003142254798991491 -1.869024431927977e-19)
(0.9255534097646665 0.003264462983612908 -1.776066704679891e-19)
(0.9328965786264045 0.003387117674747116 -1.364357399912983e-19)
(0.9400353431732024 0.00350955549504796 -2.335108479910832e-19)
(0.9469068430209557 0.003631093712119495 1.350270785008175e-19)
(0.9533956758763539 0.003751095817774499 3.807952401646037e-19)
(0.9593525956190121 0.003868650908478273 6.763801249124666e-19)
(0.9646921179381711 0.003981568116140714 1.653486681189942e-18)
(0.9695682671910808 0.004090155915251075 2.753726651092026e-18)
(0.9741960106039936 0.00419534638730382 4.080242601812871e-18)
(0.9786277608904859 0.004294584362661215 5.789299564273115e-18)
(0.9828424271469932 0.004386121696311947 7.081298780052181e-18)
(0.9868080116296351 0.004469037336254919 7.839456231664963e-18)
(0.9904754534399889 0.004541929669313613 6.263140329798777e-18)
(0.9937700221991038 0.004602125116638834 4.660566997078907e-18)
(0.9965843355412207 0.004642271076839306 2.969446144606887e-18)
(0.9987912589426272 0.004656601752781844 7.343799873986728e-19)
(1.000369677029124 0.004725676625080247 -3.546573677379199e-18)
(1.001672849830563 0.004703456639308409 5.94417778996334e-18)
(1.00264009909364 0.004680941739552394 3.887821100520119e-18)
(1.003198326918378 0.004673160946508203 1.61518922586509e-18)
(1.003091180340355 0.004603985210966843 1.485067421473537e-18)
(1.002702813591396 0.004498887926912699 -2.435823241878021e-17)
(1.002711819843279 0.004510773587095106 -8.838984984165973e-18)
(1.002687441924059 0.004450058016058018 -1.907475167716891e-18)
(1.002579080343242 0.004357960492193757 1.437349634356546e-18)
(1.002526167512148 0.004298995721798728 -2.120779950634939e-18)
(1.00248046248108 0.004223823870582366 5.275607743825694e-20)
(1.002425019339658 0.004139034421984561 -8.733657091197436e-19)
(1.002367156153405 0.004051306545171906 3.219020549777548e-17)
(1.002305525561246 0.003956923935430781 5.606972647978507e-18)
(1.0022396665967 0.003855959220403839 -1.638072833092825e-18)
(1.00216956575387 0.00374844103979609 5.164113715632917e-17)
(1.002095373142805 0.003634230424839976 1.001227421198511e-17)
(1.002017045212998 0.003513187371633638 2.128952074846481e-17)
(1.001934547135056 0.003385240286453763 4.154544426611761e-17)
(1.001848108691714 0.003250460360414964 3.559621560755464e-17)
(1.001757871435277 0.003108905708339682 5.572108408723529e-17)
(1.001664004859224 0.002960662437597357 5.587507227921791e-18)
(1.001567061124331 0.002806459447980271 4.113411599488654e-17)
(1.001465720134252 0.002643963747423943 7.144547788084257e-17)
(1.001373644316926 0.002479310237839988 1.029052909446421e-16)
(1.001282124420625 0.002308353780644286 1.088817801483904e-16)
(1.001188905542621 0.002132796359471865 1.306876146327449e-16)
(1.001094353704387 0.00195359763485897 8.626955677819943e-17)
(1.000998594493246 0.001770922071200629 9.956833622831359e-17)
(1.00090405409615 0.001589036660972886 9.644765787395941e-17)
(1.000789945939718 0.001401125236069734 5.914152579973876e-17)
(1.000667797524385 0.001210200677900932 8.527050516308747e-17)
(1.000563738278287 0.001017674709533704 6.62106623468228e-17)
(1.000521384926738 0.0008387720463642896 7.676311390471274e-17)
(1.000485598192811 0.0006457500272591856 4.29352534973064e-17)
(1.000457362525746 0.0004472699513725788 4.091563642032415e-17)
(1.000438248074402 0.0002408707439194912 2.658999722460758e-17)
(1.000430178557584 2.222114234463459e-05 2.352895215240225e-17)
(1.00043630805903 -0.0002154440597446665 4.542515373405664e-17)
(1.000461425872775 -0.0004851122344343633 -2.045179626674189e-18)
(1.000513286430415 -0.0007939528158797092 2.690622824713669e-17)
(1.000583074691448 -0.0009733816324537156 4.170781801241734e-17)
(0.9952943099163341 -0.001266755976568876 -2.256850198598823e-17)
(0.01228747461360966 2.299878588349798e-08 -5.368698048028557e-20)
(0.03694849983132561 3.574679581418235e-07 -1.692598873652663e-19)
(0.06187217590529601 1.034047928148358e-06 -2.920230248472252e-19)
(0.08723277250914609 2.068738898614214e-06 -4.477331738237512e-19)
(0.1131950813989616 3.456784171176985e-06 -6.050289802401964e-19)
(0.139899284222701 5.171956674670379e-06 -7.714226154107059e-19)
(0.1674391032574873 7.148377660032886e-06 -9.144277897158668e-19)
(0.1958417311626551 9.298986412817038e-06 -1.090926935005119e-18)
(0.2250618917947575 1.158108827689305e-05 -1.241650835971297e-18)
(0.2549939799270088 1.398440154109788e-05 -1.374907444261369e-18)
(0.2854916764801422 1.65388272506748e-05 -1.4886386730749e-18)
(0.3163813724392636 1.928362416521257e-05 -1.549155450683878e-18)
(0.3474676298736122 2.22429662968267e-05 -1.612793396066166e-18)
(0.3785368662679428 2.54469232670052e-05 -1.679254031873251e-18)
(0.4093623626574904 2.893097725849555e-05 -1.688776028725846e-18)
(0.4397141939966179 3.273363326230551e-05 -1.702712455410319e-18)
(0.4693727085728478 3.689567071026737e-05 -1.720341561535562e-18)
(0.4981364169532401 4.145996370157877e-05 -1.683907194121012e-18)
(0.5258200654238934 4.647022157667203e-05 -1.663407626449556e-18)
(0.5522514165259825 5.196986557661742e-05 -1.602728240733834e-18)
(0.5772789934563552 5.802145420943738e-05 -1.509293264535466e-18)
(0.6007815982172591 6.466053841643778e-05 -1.329805833576738e-18)
(0.6226910203585106 7.194090760875525e-05 -1.171748664019618e-18)
(0.6430011818118119 7.991520879471209e-05 -9.533064389797332e-19)
(0.6617657125228509 8.862895967676688e-05 -7.602678683668561e-19)
(0.6790582327548901 9.816215981098087e-05 -5.855240068612223e-19)
(0.6949336012721609 0.0001085628618800362 -4.28333952019384e-19)
(0.7094854923774305 0.0001198834440049524 -2.874954426768987e-19)
(0.7228703708361782 0.000132196998149293 -1.611533572040277e-19)
(0.7352641868115174 0.0001455798777217819 7.179002307136084e-21)
(0.746831086987144 0.0001601119162513658 7.164198890640936e-20)
(0.7577105067751624 0.0001758789396096964 1.334841624478771e-19)
(0.7680152064741703 0.0001929729145827449 1.895965223555902e-19)
(0.7778349165265538 0.0002114920998508888 2.40075829205106e-19)
(0.7872414456415039 0.000231541376671257 2.85182932390496e-19)
(0.7962929337329868 0.0002532320287442431 3.262409193682054e-19)
(0.8050369158430568 0.0002766812776829156 4.384811216269829e-19)
(0.8135125556759708 0.0003020118536570873 5.265714630223242e-19)
(0.821752346383636 0.0003293516273298282 5.255905414197027e-19)
(0.8297833842950174 0.0003588329974762666 5.039142858090792e-19)
(0.8376283501445463 0.0003905921461108123 6.204086225446532e-19)
(0.8453062709480118 0.0004247680926848561 6.017322210574427e-19)
(0.8528331078332988 0.0004615014482119058 5.87253165958418e-19)
(0.8602222114139108 0.0005009327894558419 5.817476998514873e-19)
(0.8674846755669687 0.0005432005114636684 5.94680929661245e-19)
(0.874629599752225 0.0005884379865862678 3.590140372993632e-19)
(0.8816642724757308 0.0006367715124325654 1.41099424839405e-19)
(0.8885942964251626 0.0006883245223895375 -3.280359617307513e-19)
(0.8954236255817855 0.0007432252800443664 -7.762583089126433e-19)
(0.9021545293426071 0.0008015104799173828 -1.2623983683043e-18)
(0.9088065856196572 0.0008632223911804156 -1.496262524377359e-18)
(0.9154191652685881 0.0009285156680290223 -1.484759526042277e-18)
(0.9220160867065137 0.0009974211114030386 -1.460009303588635e-18)
(0.9285894491513457 0.00106978399035828 -1.77082537550217e-18)
(0.9351057976106699 0.001145257019053818 -2.130767901635157e-18)
(0.9415133893320577 0.001223234835698218 -1.829709567310376e-18)
(0.9477524491293191 0.001303103975232142 -1.586141509470582e-18)
(0.9537702183582771 0.001384165020349288 -6.430131494767411e-19)
(0.9595527394071095 0.00146565392383848 2.102364294999099e-19)
(0.9651667512868485 0.001547480519254805 9.355272125147064e-19)
(0.970675454440872 0.001629177482025086 1.14617296763277e-18)
(0.9760827748546885 0.001709396478556293 6.501320905011385e-19)
(0.9813884799055179 0.001787965828367265 -8.124256229337888e-19)
(0.9865760696950225 0.001866863981987663 -2.352235594371468e-18)
(0.9915859339994378 0.001943921442407131 -4.137562932136608e-18)
(0.9962417764207552 0.001977746036744889 -6.245853126338494e-18)
(1.000194071344186 0.002042257849515619 -1.847647024535189e-18)
(1.003294809216887 0.002084972101331909 2.065071666900915e-18)
(1.005405586559478 0.002124813949703286 9.702026742167312e-18)
(1.006592487347393 0.002108890670519033 3.064302611150256e-18)
(1.007107060719299 0.002144378183673006 -2.014130797606041e-17)
(1.006666455791507 0.002150189417100744 -1.363427615437844e-17)
(1.006619143006269 0.002129474905537837 -4.948037906149667e-18)
(1.006655990625404 0.002127835217261911 -6.933444356762408e-18)
(1.00653423966498 0.002136610222758357 2.67897006162389e-17)
(1.006426087901746 0.002133979581263946 -1.762671859087226e-17)
(1.00632826805017 0.002133863005357828 -7.21492981103852e-18)
(1.006217304252357 0.002134583579349721 3.100506068939174e-17)
(1.006099924378351 0.002133758231623613 2.82024916358476e-17)
(1.005975901816778 0.002132000132811584 -2.549511306896228e-17)
(1.005844871558018 0.002128966624321068 2.868721603919706e-17)
(1.005706548092649 0.002124140200969233 4.893548071355944e-18)
(1.005561109873257 0.00211704139386353 2.180074947071484e-17)
(1.00540876097 0.002107105843371141 6.914279001832371e-17)
(1.005249529103355 0.002093686800080486 8.984490876327256e-17)
(1.005083781703493 0.002076062213017101 1.593116135512525e-16)
(1.004911962927585 0.002053232850418089 2.574904514044516e-16)
(1.004734615827839 0.00202502715481137 3.640803193088506e-16)
(1.004552362099604 0.001989362811420534 4.627599030058897e-16)
(1.004349368145047 0.001945651044418108 5.500746671974597e-16)
(1.004140063718448 0.001891855083777308 6.281313390180352e-16)
(1.003929699431798 0.001827756534862184 6.74278302135763e-16)
(1.003719857708432 0.001751846105899565 6.481134449474851e-16)
(1.003512139543599 0.001661655197646756 5.924216279363076e-16)
(1.003307860961168 0.001557056364069402 5.579907839450863e-16)
(1.003133773625382 0.001437103759627202 4.234266105726636e-16)
(1.00297053594167 0.001301669744734888 4.305181369883146e-16)
(1.002815293003563 0.001142992045581434 2.86407248253657e-16)
(1.002684417165257 0.000961312491541012 2.864236928879098e-16)
(1.002571590003021 0.0007587158678334378 2.196683475023703e-16)
(1.002480827977652 0.0005390519586399936 2.119834821506224e-16)
(1.002417720099825 0.0002976819925593295 1.692635843458809e-16)
(1.00239019760839 3.427671405501473e-05 1.502532760856031e-16)
(1.00240670686574 -0.0002487849692174759 2.019912219075989e-16)
(1.002480069006114 -0.0005532530591374845 1.637452252917365e-16)
(1.002633974908604 -0.0009374081068804907 1.056728717940847e-16)
(1.00279864810466 -0.001191462826209062 5.896330860533596e-17)
(0.9895900089049169 -0.001713106017883534 -1.289810421217264e-17)
(0.02033514907941578 -2.137884823406703e-08 1.499631960324882e-19)
(0.06115108053087703 -3.54453520548264e-07 4.507270528542311e-19)
(0.102394033721462 -1.043200940564122e-06 6.986511873378895e-19)
(0.1442723553008575 -2.114858814669297e-06 9.540454973166831e-19)
(0.1867496441673598 -3.589148261751664e-06 1.208614556796559e-18)
(0.2292706139695591 -5.494853062958476e-06 1.461507619506474e-18)
(0.2705772230477191 -7.84543761340913e-06 1.706269183066299e-18)
(0.3090024740058586 -1.060667579105369e-05 1.933494201273346e-18)
(0.343297011590504 -1.368503486500041e-05 2.134784117695899e-18)
(0.3732174849423025 -1.693670224342237e-05 2.283813126284333e-18)
(0.3995500069267529 -2.026206019099376e-05 2.413785241001637e-18)
(0.4230989151499498 -2.355485190532868e-05 2.510432637778729e-18)
(0.4443029725635704 -2.668306091794961e-05 2.599852061539461e-18)
(0.4635318600592861 -2.953131047601377e-05 2.692409925765319e-18)
(0.4811113907665109 -3.198204156105765e-05 2.765705591385063e-18)
(0.497322866620142 -3.391461611503778e-05 2.850397003944701e-18)
(0.5124038900692922 -3.520749872946706e-05 2.931977945604363e-18)
(0.5265517573953858 -3.573945254602106e-05 3.01236013917115e-18)
(0.5399278103208194 -3.538999261994321e-05 3.098491121731281e-18)
(0.5526614873887216 -3.404213478588852e-05 3.186703972580277e-18)
(0.564857956592399 -3.159005647986034e-05 3.272304670352045e-18)
(0.5766073632450004 -2.792752976447204e-05 3.372195888416036e-18)
(0.5879861748768597 -2.296372564131169e-05 3.470444138758146e-18)
(0.599059501526658 -1.661703267570148e-05 3.534619001704945e-18)
(0.609881527839615 -8.808092869904913e-06 3.604354189981856e-18)
(0.6204929305615268 5.253552548156573e-07 3.648848535322415e-18)
(0.6309251367801393 1.144199242676427e-05 3.679712549491515e-18)
(0.6412032499969452 2.399375225526301e-05 3.719156086905582e-18)
(0.6513480695753682 3.823118796029794e-05 3.771568082337734e-18)
(0.6613774106957939 5.421130745366521e-05 3.810988596171717e-18)
(0.6713069225889627 7.200239640677999e-05 3.869593162217936e-18)
(0.6811505648492575 9.168553833505031e-05 3.90803365225145e-18)
(0.6909208710543034 0.0001133545444709665 3.950939448002854e-18)
(0.7006290922774172 0.0001371154001767 3.988225682942077e-18)
(0.7102852772235708 0.0001630857507315509 4.026974266495872e-18)
(0.7198983171587298 0.0001913946076581259 4.021393714681404e-18)
(0.7294759653948842 0.0002221822505550645 4.04549068053877e-18)
(0.7390248316522346 0.0002556004094028035 4.063745162495982e-18)
(0.7485503499279469 0.0002918128905969652 4.02137338916632e-18)
(0.7580567256700461 0.0003309947577609375 3.924290305609301e-18)
(0.7675468874897499 0.0003733255936920407 3.813637855490508e-18)
(0.7770224869678528 0.0004189866559746412 3.681175247692866e-18)
(0.7864839446662791 0.0004681532804870392 3.561407878282204e-18)
(0.7959304948713957 0.0005209954309742396 3.456215236710064e-18)
(0.805360202146606 0.0005776766923278726 3.499714838230451e-18)
(0.8147699387524395 0.000638351800684868 3.450647092483387e-18)
(0.8241553261991706 0.0007031631432996958 3.443628247182283e-18)
(0.8335106582607673 0.0007722359788108757 3.3435050628759e-18)
(0.8428288348473382 0.0008456711617930817 3.348189055987908e-18)
(0.8521013368133891 0.000923535522960967 3.320332351308676e-18)
(0.8613182379130628 0.001005869035048586 3.253483995098793e-18)
(0.8704681498137987 0.001092684557780048 3.267948279067716e-18)
(0.8795385584295921 0.001183961715895224 3.059551832765922e-18)
(0.8885183071827624 0.001279636773079893 2.842071365330983e-18)
(0.897398470121839 0.001379577276626434 2.976352232707836e-18)
(0.9061647128324409 0.001483525961505152 2.834793837143215e-18)
(0.9147940204019195 0.00159104288346755 2.348115503160605e-18)
(0.9232585926619672 0.001701469780166162 2.096588857160043e-18)
(0.9315358990752923 0.001813967077002604 1.178271264593222e-18)
(0.9396180644338696 0.001927660778241412 6.218203286966294e-19)
(0.9475116762568462 0.002041675765401466 -1.057319455534843e-19)
(0.9552249276942333 0.002155271602644514 2.368244145324668e-19)
(0.9627431790060519 0.002267808371214889 -5.251060985792129e-19)
(0.9699993145460106 0.002378683638846672 -9.486385254049242e-19)
(0.9768803215935863 0.00248631611980479 -3.042345350172785e-18)
(0.9833714917413566 0.002587557971361174 -4.295310833888485e-18)
(0.9895625703093237 0.002684814429090326 5.084556300395376e-19)
(0.9953975990113703 0.00277094028838551 8.302101745365469e-18)
(1.000575786793708 0.002833211804511271 1.366211152561677e-17)
(1.004653794085637 0.002908588579994495 1.055721637607207e-17)
(1.007122393444766 0.002924140770305942 -8.480929194049114e-18)
(1.007933320188454 0.002948783932733964 2.716376202106062e-18)
(1.007689896490872 0.002868232348299767 4.691634671989794e-17)
(1.007529038958062 0.002869826035426044 -3.669002977527588e-17)
(1.007515075443976 0.002839793854432044 3.054033390046353e-17)
(1.007442439212608 0.002802270538657252 1.16978464852576e-17)
(1.007373186521425 0.002766963934568785 2.539339100002207e-17)
(1.007303363546245 0.002728308867757644 5.939483556629931e-17)
(1.007227341869078 0.002686033761770908 4.524704743673601e-17)
(1.007146309746682 0.002640882884216016 1.319401543879714e-17)
(1.007059819643978 0.002592487796097984 1.275358061383525e-16)
(1.006967965698755 0.002540604208543064 -4.410064190636623e-18)
(1.006870549395586 0.002485115695177387 1.889886998309719e-17)
(1.006767396778632 0.002425860493509172 2.03095792512702e-17)
(1.00665861014321 0.002362624835811875 1.284784297034517e-17)
(1.006544142004666 0.00229528225314806 2.798005661504793e-17)
(1.006423985564816 0.002223324161328851 9.451304634897295e-17)
(1.006298297626274 0.002147104713408089 1.457615721937824e-16)
(1.006166996675289 0.002065815367782637 2.125861545715489e-16)
(1.00604590348521 0.00197913817273516 2.586121972643661e-16)
(1.005923481658695 0.001885659567807181 3.330031248545675e-16)
(1.0057964642712 0.001785627486417153 2.582858165330238e-16)
(1.005664926738237 0.001678173399831836 2.259485682561114e-16)
(1.005529363699522 0.00156188139549395 1.359546848252213e-16)
(1.005390786917172 0.001435605419366191 8.886326685605702e-17)
(1.005250245123186 0.001299935841749278 -5.357824867085752e-17)
(1.005108243521236 0.001155628979904781 -7.01332811732619e-18)
(1.004967058873088 0.0009984128825048116 -1.076055959456394e-16)
(1.004833773174197 0.0008263290129738685 3.171308308849133e-17)
(1.004716819962411 0.0006423761360826218 7.636500574779812e-17)
(1.004620578721579 0.0004448457147183142 1.865863463268211e-16)
(1.004551886107582 0.000228826801368701 3.141629226383192e-16)
(1.004517073248236 -7.490692225794383e-06 3.335582858151842e-16)
(1.004530288714882 -0.0002658315052610831 3.747661443459554e-16)
(1.00460520781273 -0.0005310237349742662 3.199792676863598e-16)
(1.004769527200875 -0.0008981860801478464 1.685461114885856e-16)
(1.004851556506937 -0.001107436137425367 1.139737916346761e-16)
(0.9840229608522675 -0.001781189589446596 2.331291229882336e-17)
(0.01921628464106019 8.127978325721953e-09 4.882738781743483e-19)
(0.05778571978959604 1.348663839845036e-07 1.435724210907219e-18)
(0.0967583709145739 3.970215890908582e-07 2.356945396624946e-18)
(0.1363372492434541 8.048971107179535e-07 3.297481410212888e-18)
(0.1765112100958179 1.365488947964835e-06 4.250393492065656e-18)
(0.2167997150910799 2.089070013147429e-06 5.234331228703855e-18)
(0.2560542095689077 2.98215191354565e-06 6.174035634019775e-18)
(0.2927101653881218 4.040525242814861e-06 7.043012842265646e-18)
(0.325566105118008 5.250862470411242e-06 7.795205735166376e-18)
(0.3543485449348692 6.593842364188471e-06 8.458503583205458e-18)
(0.3797682951204273 8.076051058198509e-06 9.028356008132016e-18)
(0.4025646254298689 9.708815994994631e-06 9.545212274404541e-18)
(0.4231290178606634 1.149353424230255e-05 1.001328122716429e-17)
(0.44179373903334 1.344065955615597e-05 1.043591858229168e-17)
(0.4588544723939765 1.556414544347889e-05 1.081909376519396e-17)
(0.4745682885973019 1.788060715237375e-05 1.116008779151341e-17)
(0.489153469573669 2.040965531012192e-05 1.148186681486221e-17)
(0.5027925085798087 2.317405138224121e-05 1.176022715621401e-17)
(0.5156371805855042 2.619945467957164e-05 1.202665756325738e-17)
(0.5278152527693472 2.951567254984906e-05 1.227943813094816e-17)
(0.539434137509412 3.315537305240542e-05 1.253338071783639e-17)
(0.5505849029067376 3.715551217377954e-05 1.275454015398985e-17)
(0.5613469075779869 4.155633555984995e-05 1.296343629379777e-17)
(0.5717932358000239 4.639771621431034e-05 1.319057685104148e-17)
(0.5819998861686949 5.172660682322285e-05 1.337824373624716e-17)
(0.5920257390079857 5.759280543611929e-05 1.355395794560637e-17)
(0.6018992838338729 6.404237048202537e-05 1.37598408224864e-17)
(0.6116381123331796 7.113028704386473e-05 1.393140787430703e-17)
(0.6212571888543329 7.891891692635779e-05 1.410600091173482e-17)
(0.6307692685819799 8.747602871059978e-05 1.428020798913414e-17)
(0.6401852497069552 9.687600193351545e-05 1.442397949124987e-17)
(0.6495144660244133 0.0001072008676419853 1.456636640791591e-17)
(0.6587649145610858 0.0001185411671447341 1.463640277471319e-17)
(0.6679434946798405 0.0001309969193458094 1.475110432271738e-17)
(0.6770562370925907 0.0001446787007165436 1.481153345017314e-17)
(0.686108459866605 0.0001597087737475596 1.489195474765264e-17)
(0.695104904919898 0.0001762228816813607 1.491277979305612e-17)
(0.7040498407040464 0.0001943733293254701 1.489282379612939e-17)
(0.7129471805091872 0.0002143274499165923 1.488990357279621e-17)
(0.7218040662142908 0.0002362559180965731 1.484608929633704e-17)
(0.7306435781736101 0.0002603663781187644 1.482095353061415e-17)
(0.7394958278491467 0.0002868983755437777 1.475778377183169e-17)
(0.7483815226649292 0.0003160946923921882 1.472319643798898e-17)
(0.7573149585594459 0.000348229755659215 1.460016260098735e-17)
(0.7663062546621561 0.0003836080133467444 1.450765110123551e-17)
(0.7753629198455345 0.0004225647132912891 1.44739344899851e-17)
(0.7844908871769666 0.000465469532569943 1.435735107996377e-17)
(0.7936952169629232 0.0005127136609081946 1.429272508665474e-17)
(0.8029807547271 0.0005646948783893286 1.424960056335615e-17)
(0.8123529256782061 0.0006217964004810497 1.393357569998204e-17)
(0.8218184619027465 0.0006843727790232454 1.387951145419236e-17)
(0.8313854482934797 0.0007527512709970534 1.387174322521498e-17)
(0.8410615980996731 0.0008272316103427921 1.393456224019882e-17)
(0.8508490318735086 0.0009080735919481172 1.390297807041581e-17)
(0.8607395189260094 0.0009954789602499938 1.370694904548021e-17)
(0.8707178132515416 0.001089588424060608 1.336347001212571e-17)
(0.880762686022286 0.001190455233551353 1.312736398584692e-17)
(0.8908461992174096 0.001298001791313098 1.333223936593548e-17)
(0.9009320153021715 0.001411981243898173 1.295249073424747e-17)
(0.9109740505727172 0.001531948741936482 1.301424770630936e-17)
(0.9209177657670833 0.001657226914699216 1.239054534759032e-17)
(0.9307071186206565 0.001786857943179148 1.114384591090499e-17)
(0.9403022045174355 0.001919729339118729 1.054101434366079e-17)
(0.9496699189165271 0.00205437461390871 9.324581838927273e-18)
(0.9587696289363314 0.002188878575948313 8.754661064197664e-18)
(0.9675412135690522 0.002321558709813245 9.426856509586164e-18)
(0.9758761301012454 0.00245020699061431 1.094708090699543e-17)
(0.983614263063207 0.00257107776520461 1.580480151503536e-17)
(0.9908048665695149 0.002682339964869716 2.279675207125276e-17)
(0.9974851206808364 0.002788943591647369 2.554171289454168e-17)
(1.003193807017994 0.002878343051784744 1.743621311562959e-17)
(1.007211976068558 0.002911378726684255 1.794914008394569e-17)
(1.009003121237612 0.002953531586338899 1.247888827360821e-17)
(1.009234114236842 0.002936077345932252 -3.626005803679172e-17)
(1.008930731741559 0.00291113932571406 2.696949970244968e-17)
(1.008889963872975 0.002879400812821153 2.798396235306247e-17)
(1.008828219339525 0.002854502016443582 6.161652495002131e-17)
(1.008747970505332 0.00282411687070399 9.074056439874996e-17)
(1.008668725506982 0.002789947829714142 6.705039326376612e-17)
(1.00858541549667 0.002752988917353363 2.975415374703869e-17)
(1.008498039190932 0.002712277926625452 1.081092408217272e-16)
(1.008405177320773 0.00266748632951535 -1.039196435435357e-17)
(1.008307329174442 0.002618317387712233 -1.683833720643144e-17)
(1.008204721327851 0.002564367516071613 -8.451468636462051e-17)
(1.008096481634826 0.002505195609311156 -1.489688364050288e-16)
(1.007982900586335 0.002440461631521764 -1.88126227487665e-16)
(1.007864140086187 0.002369380708776577 -2.592818546696301e-16)
(1.007740466496232 0.002291882537215194 -2.680496908240086e-16)
(1.007611798964239 0.002207384762029766 -2.983905503179401e-16)
(1.007481806188615 0.002115079647986184 -3.608119949546453e-16)
(1.007348961378016 0.002014956397644436 -3.769944370190073e-16)
(1.007213177860907 0.001906877797539315 -4.889337703462058e-16)
(1.007074946673067 0.001790095998596401 -5.74277437685325e-16)
(1.006935124139093 0.001664042719592704 -6.950355564029997e-16)
(1.006794874457511 0.001527617267241726 -7.033414098118662e-16)
(1.006655379940122 0.001380636613844753 -8.035299819303115e-16)
(1.006517315078509 0.001223457373887322 -6.519510747155082e-16)
(1.006382645733196 0.001053981283782678 -6.698955431968287e-16)
(1.006257489428969 0.0008702992797017901 -4.010840099497643e-16)
(1.006148913037434 0.0006740784699439527 -1.6961704229488e-16)
(1.006060557270618 0.0004630114010510142 8.511044277554031e-17)
(1.005998455141971 0.0002346043141752883 3.542174318009407e-16)
(1.005972867037493 -1.239447894067935e-05 4.756230737279535e-16)
(1.005990610473754 -0.0002856480400513796 5.486867280875478e-16)
(1.006061077448795 -0.0005535211459993828 4.450249662623951e-16)
(1.00620911083052 -0.0009379477755871784 2.781252940046986e-16)
(1.006133878857886 -0.001081513299445877 1.751422653128153e-16)
(0.9787120427463296 -0.001822392817416448 1.887309626663529e-17)
(0.0181380558337888 8.018216877199892e-09 3.575282846167637e-19)
(0.05454344716327649 1.33083467964254e-07 1.075168222239751e-18)
(0.09133104207948901 3.917872305464354e-07 1.800360272550239e-18)
(0.1287018719858697 7.943161707640137e-07 2.53702791720457e-18)
(0.1666786030783207 1.347487619496463e-06 3.285546239905336e-18)
(0.2048823481386761 2.060373099985368e-06 4.038331796943495e-18)
(0.242336619195292 2.935552444187416e-06 4.775989800666367e-18)
(0.2776315753068369 3.961418506215489e-06 5.470600858374307e-18)
(0.3095818887639713 5.11577327124619e-06 6.09873365493167e-18)
(0.3377729911761264 6.371825667690145e-06 6.652219330770452e-18)
(0.3627420751712735 7.732018378853847e-06 7.141655805780271e-18)
(0.3851801198904516 9.205424186678041e-06 7.580681657884815e-18)
(0.405479499466929 1.079628603894929e-05 7.97713419481582e-18)
(0.4239476201267297 1.251050452641388e-05 8.337235393352029e-18)
(0.4408587731089628 1.435732954412069e-05 8.666122489350268e-18)
(0.4564549524144203 1.634807605098904e-05 8.968303701426466e-18)
(0.4709445799862449 1.849589316284769e-05 9.246167435975415e-18)
(0.4845038267726515 2.081570034451375e-05 9.527725599066386e-18)
(0.4972797473855816 2.332419956645786e-05 9.789933436094639e-18)
(0.5093943755785686 2.604011047867677e-05 1.003696748154679e-17)
(0.5209495605035556 2.898454708918109e-05 1.027128865312452e-17)