/*--------------------------------*- C++ -*----------------------------------*\
| =========                 |                                                 |
| \\      /  F ield         | OpenFOAM: The Open Source CFD Toolbox           |
|  \\    /   O peration     | Version:  v1812                                 |
|   \\  /    A nd           | Web:      www.OpenFOAM.com                      |
|    \\/     M anipulation  |                                                 |
\*---------------------------------------------------------------------------*/
FoamFile
{
    version     2.0;
    format      ascii;
    class       volVectorField;
    location    "0";
    object      C;
}
// * * * * * * * * * * * * * * * * * * * * * * * * * * * * * * * * * * * * * //

dimensions      [0 1 0 0 0 0 0];


internalField   nonuniform List<vector> 
44064
(
(-6.199677128279999 8.009024505399999e-06 0.05)
(-6.199677128279998 2.40849124586e-05 0.05)
(-6.199677128279998 4.033473493549999e-05 0.05)
(-6.199677128280188 5.687584362407499e-05 0.05)
(-6.199677128279999 7.382769380024998e-05 0.05)
(-6.199677128279822 9.131270700047501e-05 0.05)
(-6.199677128279998 0.0001094571551155 0.05000000000000002)
(-6.199677128279999 0.0001283920722915 0.05000000000000001)
(-6.199677128279999 0.000148254201222 0.05000000000000001)
(-6.199677128279999 0.0001691869806655 0.05)
(-6.199677128279999 0.0001913415813195 0.05)
(-6.199677128279999 0.000214877997534 0.05)
(-6.199677128279998 0.0002399662027455 0.05)
(-6.199677128279999 0.0002667873769784999 0.04999999999999999)
(-6.19967712828 0.0002955352152765 0.05000000000000001)
(-6.199677128279999 0.0003264173265135 0.05)
(-6.199677128279999 0.0003596567326885 0.05)
(-6.19967712828 0.000395493479526 0.05000000000000001)
(-6.199677128279999 0.0004341863700219999 0.05)
(-6.199677128279999 0.000476014833445 0.05000000000000001)
(-6.199677128280674 0.00052128094329775 0.05000000000000001)
(-6.199677128279378 0.0005703115988072499 0.05)
(-6.199677128279999 0.0006234608856985001 0.04999999999999999)
(-6.199677128280527 0.00068111263330575 0.05000000000000001)
(-6.199677128279513 0.00074368318647875 0.05)
(-6.199677128279999 0.0008116244123099999 0.05)
(-6.199677128279999 0.0008854269633924999 0.05)
(-6.199677128279998 0.0009656238211779997 0.05)
(-6.19967712828 0.001052794145015 0.05000000000000001)
(-6.199677128279999 0.00114756745468 0.05000000000000001)
(-6.199677128279999 0.0012506281766 0.05)
(-6.199677128279999 0.001362720586575 0.05)
(-6.199677128279999 0.001484654184745 0.05)
(-6.199677128279998 0.001617309541565 0.05)
(-6.199677128279999 0.00176164465704 0.05)
(-6.199677128279999 0.00191870187914 0.05)
(-6.199677128279999 0.002089615431339999 0.05)
(-6.199677128279998 0.002275619603664999 0.05)
(-6.199677128279998 0.0024780576664 0.05)
(-6.199677128279998 0.002698391570805 0.05)
(-6.199677128279999 0.002938212506905 0.05)
(-6.199677128279999 0.003199252394650001 0.05000000000000001)
(-6.199677128279999 0.003483396391345 0.05)
(-6.199677128279999 0.003792696505720001 0.05)
(-6.199677128279999 0.00412938641698 0.05)
(-6.199677128279999 0.004495897605804999 0.05)
(-6.199677128279999 0.004894876913830001 0.05)
(-6.199677128279999 0.005329205658395001 0.05)
(-6.199677128279999 0.00580202044061 0.05)
(-6.199677128279999 0.006316735797035 0.05)
(-6.199677128279998 0.006877068858489999 0.05)
(-6.199677128279999 0.007487066194134999 0.05)
(-6.199677128279999 0.00815113303468 0.05)
(-6.199677128279999 0.008874065085734998 0.04999999999999999)
(-6.199677128279999 0.009661083161014997 0.05000000000000001)
(-6.199677128279999 0.0105178708857 0.05)
(-6.199677128279999 0.0114506157419 0.05)
(-6.199677128279999 0.01246605375295 0.05)
(-6.199677128279999 0.01357151812905 0.05)
(-6.199677128279999 0.01477499222575 0.05)
(-6.199677128279999 0.01608516719755 0.05000000000000001)
(-6.199677128279999 0.01751150476285 0.05)
(-6.199677128279999 0.0190643055339 0.05)
(-6.199677128279999 0.02075478340495 0.05)
(-6.199677128279999 0.022595146536 0.05)
(-6.19967712828 0.0245986855166 0.05)
(-6.199677128281395 0.02677986934667501 0.05)
(-6.199677128278718 0.029154449927775 0.05)
(-6.199677128279998 0.03173957581895 0.05)
(-6.199677128279999 0.03455391607874999 0.05)
(-6.199677128280991 0.037617795087975 0.05)
(-6.199677128279086 0.04095333932667501 0.05)
(-6.199677128279999 0.04458463716555 0.05)
(-6.199677128279999 0.0485379128253 0.05)
(-6.199677128279999 0.05284171576064999 0.05)
(-6.199677128279999 0.05752712683669999 0.05)
(-6.199677128279999 0.06262798278610002 0.05000000000000001)
(-6.19967712828 0.06818112056849999 0.05000000000000001)
(-6.19967712828 0.07422664339695 0.05)
(-6.199677128279999 0.08080821035204999 0.05)
(-6.199677128279999 0.08797335167564999 0.05)
(-6.199677128279999 0.09577381202094999 0.05)
(-6.199677128279999 0.10426592413815 0.05)
(-6.199677128279998 0.1135110156935 0.05000000000000001)
(-6.199677128279999 0.1235758521605 0.05)
(-6.199677128279999 0.134533118983 0.04999999999999999)
(-6.199677128279999 0.146461946488 0.05)
(-6.199677128279998 0.1594484813415 0.05)
(-6.199677128279999 0.173586508678 0.05)
(-6.199677128279998 0.18897812939 0.05)
(-6.199677128279999 0.2057344974715 0.05000000000000001)
(-6.199677128279998 0.2239766227415 0.05)
(-6.19967712828 0.2438362447435 0.05000000000000001)
(-6.199677128279999 0.2654567841315 0.04999999999999999)
(-6.199677128279999 0.2889943784135 0.05)
(-6.199677128279999 0.3146190095345 0.05000000000000001)
(-6.19967712828 0.3425157314370001 0.05000000000000001)
(-6.199677128279999 0.3728860064695 0.05)
(-6.19967712828 0.4059491602920001 0.05000000000000001)
(-6.199677128279999 0.4419439657850001 0.05000000000000001)
(-6.199677128279999 0.4811303673994999 0.05000000000000001)
(-6.199677128279999 0.5237913584035 0.05)
(-6.199677128279999 0.5702350245819999 0.05)
(-6.199677128279999 0.6207967691449999 0.05)
(-6.19967712828 0.6758417349170001 0.05000000000000002)
(-6.199677128279999 0.7357674412955001 0.05)
(-6.199677128279999 0.801006655027 0.05)
(-6.199677128279999 0.8720305155270001 0.05)
(-5.841766953644999 8.0090245054e-06 0.05)
(-5.841766953644998 2.408491245859999e-05 0.05)
(-5.841766953644999 4.033473493549999e-05 0.05000000000000001)
(-5.841766953645001 5.687584362405001e-05 0.05000000000000001)
(-5.841766953645 7.382769380020001e-05 0.05000000000000002)
(-5.841766953645 9.131270700045e-05 0.05000000000000001)
(-5.841766953645001 0.0001094571551155 0.05)
(-5.841766953645 0.0001283920722915 0.05000000000000002)
(-5.841766953645 0.000148254201222 0.05000000000000001)
(-5.841766953644999 0.0001691869806655 0.05000000000000001)
(-5.841766953644999 0.0001913415813195 0.05)
(-5.841766953646149 0.00021487799753375 0.05000000000000001)
(-5.841766953643922 0.00023996620274525 0.05)
(-5.841766953644999 0.0002667873769785 0.05)
(-5.841766953644999 0.0002955352152765 0.05)
(-5.841766953645 0.0003264173265135 0.05000000000000002)
(-5.84176695364581 0.00035965673268825 0.05000000000000002)
(-5.84176695364425 0.00039549347952575 0.05)
(-5.841766953645694 0.0004341863700217499 0.05)
(-5.841766953644358 0.00047601483344475 0.05000000000000001)
(-5.841766953644999 0.0005212809432974999 0.05)
(-5.841766953645001 0.0005703115988070001 0.05)
(-5.841766953644998 0.0006234608856984999 0.05000000000000001)
(-5.841766953644999 0.0006811126333054999 0.05)
(-5.841766953645 0.0007436831864784999 0.05000000000000001)
(-5.841766953645 0.00081162441231 0.05)
(-5.841766953645001 0.0008854269633925001 0.05)
(-5.841766953645 0.000965623821178 0.05000000000000001)
(-5.841766953644999 0.001052794145015 0.05)
(-5.841766953645 0.00114756745468 0.05000000000000001)
(-5.841766953645 0.0012506281766 0.05)
(-5.841766953644999 0.001362720586575 0.05)
(-5.841766953645001 0.001484654184745 0.05)
(-5.841766953644999 0.001617309541565 0.05000000000000001)
(-5.841766953645 0.00176164465704 0.05000000000000002)
(-5.841766953645001 0.00191870187914 0.05)
(-5.841766953645 0.00208961543134 0.05000000000000001)
(-5.841766953644998 0.002275619603664999 0.04999999999999999)
(-5.841766953645001 0.0024780576664 0.05000000000000002)
(-5.841766953646216 0.0026983915708025 0.05000000000000001)
(-5.841766953643882 0.0029382125069025 0.05)
(-5.841766953645 0.00319925239465 0.05)
(-5.841766953645 0.003483396391345 0.05000000000000001)
(-5.841766953644999 0.00379269650572 0.05)
(-5.841766953644999 0.004129386416979999 0.05)
(-5.841766953645 0.004495897605804999 0.05)
(-5.841766953644999 0.004894876913830001 0.05000000000000001)
(-5.841766953644999 0.005329205658395001 0.05000000000000001)
(-5.841766953645 0.00580202044061 0.05000000000000001)
(-5.841766953645001 0.006316735797034999 0.05)
(-5.841766953644999 0.006877068858489998 0.05000000000000001)
(-5.841766953645002 0.007487066194135 0.05000000000000002)
(-5.841766953645001 0.008151133034679998 0.05)
(-5.84176695364537 0.008874065085732498 0.05000000000000001)
(-5.841766953644659 0.009661083161012499 0.05)
(-5.841766953644999 0.0105178708857 0.05)
(-5.841766953644999 0.0114506157419 0.05)
(-5.841766953644999 0.01246605375295 0.05000000000000001)
(-5.841766953644999 0.01357151812905 0.05000000000000001)
(-5.841766953644999 0.01477499222575 0.05)
(-5.841766953645001 0.01608516719755 0.05000000000000001)
(-5.841766953645 0.01751150476285 0.05000000000000001)
(-5.841766953645001 0.0190643055339 0.05000000000000001)
(-5.841766953644999 0.02075478340494999 0.05)
(-5.841766953644998 0.02259514653599999 0.05)
(-5.841766953644999 0.02459868551659999 0.05)
(-5.841766953645001 0.02677986934665001 0.05000000000000001)
(-5.841766953645 0.02915444992775 0.05)
(-5.841766953645 0.03173957581895 0.05000000000000001)
(-5.841766953645 0.03455391607874999 0.05)
(-5.841766953645 0.03761779508795001 0.05000000000000001)
(-5.841766953644998 0.04095333932665002 0.05)
(-5.841766953644999 0.04458463716555001 0.05)
(-5.841766953644999 0.04853791282529999 0.05)
(-5.841766953644999 0.05284171576065 0.05)
(-5.841766953644999 0.05752712683669999 0.05)
(-5.841766953644999 0.06262798278609999 0.05)
(-5.841766953645 0.06818112056849999 0.05)
(-5.841766953645001 0.07422664339695 0.05)
(-5.841766953645 0.08080821035204999 0.05)
(-5.841766953645374 0.08797335167562502 0.05000000000000001)
(-5.841766953644657 0.095773812020925 0.05000000000000002)
(-5.841766953645 0.10426592413815 0.05000000000000001)
(-5.841766953645 0.1135110156935 0.05)
(-5.841766953644999 0.1235758521605 0.05)
(-5.841766953644999 0.134533118983 0.05)
(-5.841766953645001 0.146461946488 0.05000000000000002)
(-5.841766953645 0.1594484813415 0.05)
(-5.841766953644999 0.173586508678 0.05)
(-5.841766953645 0.18897812939 0.05000000000000001)
(-5.841766953644999 0.2057344974715 0.05)
(-5.841766953645 0.2239766227415 0.05000000000000001)
(-5.841766953645 0.2438362447434999 0.05)
(-5.841766953644999 0.2654567841315 0.05)
(-5.841766953644998 0.2889943784135 0.05)
(-5.841766953645001 0.3146190095345 0.05000000000000001)
(-5.841766953645 0.342515731437 0.05)
(-5.841766953645 0.3728860064694999 0.05)
(-5.841766953645001 0.4059491602920001 0.05000000000000001)
(-5.841766953645 0.441943965785 0.05000000000000001)
(-5.841766953645 0.4811303673995 0.05000000000000002)
(-5.841766953645 0.5237913584034999 0.05)
(-5.841766953644999 0.570235024582 0.05)
(-5.841766953645001 0.6207967691449999 0.05)
(-5.841766953645001 0.6758417349170001 0.05000000000000001)
(-5.841766953645001 0.7357674412955002 0.05000000000000001)
(-5.841766953645 0.8010066550269997 0.05000000000000001)
(-5.841766953644999 0.8720305155269999 0.05000000000000001)
(-5.524972915004999 8.009024505399999e-06 0.05000000000000001)
(-5.524972915005001 2.40849124586e-05 0.05)
(-5.524972915005001 4.03347349355e-05 0.05000000000000002)
(-5.524972915005 5.687584362404998e-05 0.05)
(-5.524972915005 7.382769380020001e-05 0.05000000000000001)
(-5.524972915005 9.131270700045001e-05 0.05000000000000001)
(-5.524972915005001 0.0001094571551155 0.05000000000000001)
(-5.524972915005002 0.0001283920722915 0.05000000000000001)
(-5.524972915005001 0.000148254201222 0.05000000000000001)
(-5.524972915005 0.0001691869806655 0.05000000000000001)
(-5.524972915005001 0.0001913415813195 0.05)
(-5.524972915005001 0.0002148779975335 0.05)
(-5.524972915005 0.000239966202745 0.05000000000000001)
(-5.524972915005001 0.0002667873769785 0.05)
(-5.524972915005001 0.0002955352152764999 0.05000000000000001)
(-5.524972915005001 0.0003264173265134999 0.05000000000000001)
(-5.524972915005 0.0003596567326879999 0.05)
(-5.524972915005001 0.0003954934795254999 0.05000000000000001)
(-5.524972915004999 0.0004341863700215 0.05000000000000001)
(-5.524972915005 0.0004760148334445 0.05000000000000001)
(-5.524972915004999 0.0005212809432974998 0.04999999999999999)
(-5.524972915005001 0.0005703115988070001 0.05000000000000001)
(-5.524972915005001 0.0006234608856985002 0.05)
(-5.524972915005001 0.0006811126333055 0.05000000000000001)
(-5.524972915005 0.0007436831864785 0.05)
(-5.524972915005 0.00081162441231 0.05000000000000001)
(-5.524972915005 0.0008854269633924999 0.05)
(-5.524972915005 0.0009656238211779998 0.05)
(-5.524972915005001 0.001052794145015 0.05)
(-5.524972915005002 0.00114756745468 0.05000000000000001)
(-5.524972915005 0.0012506281766 0.05)
(-5.524972915005001 0.001362720586575 0.05000000000000001)
(-5.524972915005 0.001484654184745 0.05)
(-5.524972915005001 0.001617309541565 0.05000000000000001)
(-5.524972915005 0.00176164465704 0.05)
(-5.524972915005 0.00191870187914 0.04999999999999999)
(-5.524972915006395 0.0020896154313375 0.05)
(-5.524972915003716 0.002275619603662499 0.05000000000000001)
(-5.524972915005002 0.0024780576664 0.05000000000000002)
(-5.524972915005001 0.0026983915708 0.05)
(-5.524972915005001 0.002938212506899999 0.05000000000000001)
(-5.524972915005001 0.003199252394649999 0.05)
(-5.524972915005 0.003483396391345 0.05)
(-5.524972915005001 0.00379269650572 0.05)
(-5.524972915005 0.00412938641698 0.05000000000000001)
(-5.524972915005002 0.004495897605804999 0.05)
(-5.524972915005598 0.004894876913827501 0.05000000000000001)
(-5.524972915004451 0.005329205658392501 0.05000000000000001)
(-5.524972915005001 0.005802020440610001 0.05)
(-5.524972915004999 0.006316735797034998 0.05)
(-5.524972915005425 0.0068770688584875 0.05)
(-5.524972915004609 0.0074870661941325 0.05000000000000001)
(-5.524972915005 0.008151133034679998 0.05)
(-5.524972915004999 0.008874065085729998 0.05)
(-5.524972915004999 0.00966108316101 0.05)
(-5.524972915005001 0.0105178708857 0.05)
(-5.524972915005001 0.0114506157419 0.05000000000000001)
(-5.524972915005001 0.01246605375295 0.05000000000000001)
(-5.524972915005 0.01357151812905 0.05)
(-5.524972915005002 0.01477499222575 0.05000000000000001)
(-5.524972915005001 0.01608516719755 0.05)
(-5.524972915006672 0.017511504762825 0.05000000000000001)
(-5.524972915003464 0.019064305533875 0.05)
(-5.524972915005001 0.02075478340495 0.05000000000000002)
(-5.524972915005 0.022595146536 0.05)
(-5.524972915005 0.02459868551659999 0.05)
(-5.524972915005001 0.02677986934665001 0.05)
(-5.524972915005 0.02915444992775 0.05)
(-5.524972915005 0.03173957581895 0.05000000000000001)
(-5.524972915005001 0.03455391607875 0.05000000000000001)
(-5.524972915005001 0.03761779508795001 0.05)
(-5.524972915004999 0.04095333932665001 0.05000000000000001)
(-5.524972915005 0.04458463716555001 0.05000000000000002)
(-5.524972915005002 0.0485379128253 0.05000000000000002)
(-5.524972915005001 0.05284171576064999 0.05)
(-5.524972915005001 0.0575271268367 0.05000000000000001)
(-5.524972915005 0.0626279827861 0.05)
(-5.524972915004999 0.06818112056849999 0.05000000000000001)
(-5.524972915005 0.07422664339695 0.05)
(-5.524972915005 0.08080821035204999 0.05)
(-5.524972915005001 0.08797335167560001 0.05000000000000001)
(-5.524972915005304 0.09577381202087498 0.04999999999999999)
(-5.524972915004719 0.104265924138125 0.05000000000000002)
(-5.524972915005 0.1135110156935 0.05)
(-5.524972915004999 0.1235758521605 0.05)
(-5.524972915004999 0.134533118983 0.05)
(-5.524972915005002 0.146461946488 0.05000000000000002)
(-5.524972915005 0.1594484813414999 0.05)
(-5.524972915005001 0.173586508678 0.05000000000000001)
(-5.524972915005 0.18897812939 0.05)
(-5.524972915006424 0.20573449747125 0.05000000000000001)
(-5.524972915003691 0.22397662274125 0.05000000000000001)
(-5.524972915005 0.2438362447435 0.05)
(-5.524972915004999 0.2654567841315 0.05)
(-5.524972915005001 0.2889943784135 0.05000000000000002)
(-5.524972915005 0.3146190095344999 0.05000000000000001)
(-5.524972915004998 0.3425157314369999 0.05)
(-5.524972915004999 0.3728860064695 0.05)
(-5.524972915005 0.405949160292 0.05000000000000001)
(-5.524972915005002 0.441943965785 0.05000000000000002)
(-5.524972915005 0.4811303673995 0.05)
(-5.524972915005001 0.5237913584035001 0.05)
(-5.524972915004999 0.5702350245819999 0.05000000000000001)
(-5.524972915005 0.620796769145 0.05000000000000001)
(-5.524972915005001 0.6758417349170001 0.05)
(-5.524972915005001 0.7357674412955001 0.05000000000000001)
(-5.524972915005 0.8010066550269999 0.05000000000000001)
(-5.524972915005 0.8720305155269997 0.05)
(-5.241612003275001 8.009024505400002e-06 0.05000000000000001)
(-5.241612003275002 2.40849124586e-05 0.05)
(-5.241612003275 4.03347349355e-05 0.05)
(-5.241612003275002 5.687584362405001e-05 0.05000000000000001)
(-5.241612003275 7.382769380019999e-05 0.05)
(-5.241612003275001 9.131270700045e-05 0.05)
(-5.241612003275001 0.0001094571551155 0.05)
(-5.241612003275001 0.0001283920722915 0.05)
(-5.241612003275001 0.000148254201222 0.05)
(-5.24161200327604 0.0001691869806652499 0.05)
(-5.24161200327402 0.00019134158131925 0.05)
(-5.241612003275001 0.0002148779975335 0.05)
(-5.241612003275001 0.000239966202745 0.05)
(-5.241612003275806 0.00026678737697825 0.05)
(-5.241612003274249 0.0002955352152762499 0.05)
(-5.241612003274999 0.0003264173265134999 0.05)
(-5.241612003274999 0.0003596567326879999 0.05000000000000001)
(-5.241612003275001 0.0003954934795255001 0.05000000000000001)
(-5.241612003274999 0.0004341863700215 0.05)
(-5.241612003275 0.0004760148334445 0.05)
(-5.241612003275 0.0005212809432974999 0.05)
(-5.241612003275439 0.0005703115988067502 0.05)
(-5.241612003274597 0.0006234608856982499 0.05000000000000001)
(-5.241612003275 0.0006811126333054999 0.05000000000000001)
(-5.241612003275002 0.0007436831864784999 0.05000000000000001)
(-5.241612003275315 0.0008116244123097501 0.05)
(-5.241612003275 0.000885426963392 0.05)
(-5.241612003274732 0.0009656238211777499 0.05)
(-5.241612003275001 0.001052794145015 0.05)
(-5.241612003275001 0.00114756745468 0.05)
(-5.241612003274999 0.0012506281766 0.05)
(-5.241612003275 0.001362720586575 0.05)
(-5.241612003275 0.001484654184745 0.05)
(-5.241612003275 0.001617309541565 0.05000000000000001)
(-5.241612003275001 0.00176164465704 0.05000000000000002)
(-5.241612003275001 0.00191870187914 0.05000000000000001)
(-5.241612003275 0.002089615431335 0.05000000000000001)
(-5.241612003275002 0.00227561960366 0.05000000000000002)
(-5.241612003275001 0.0024780576664 0.05000000000000001)
(-5.241612003275 0.0026983915708 0.05)
(-5.241612003275002 0.002938212506900001 0.05000000000000001)
(-5.241612003275001 0.003199252394650001 0.05000000000000002)
(-5.241612003275001 0.003483396391345 0.05)
(-5.241612003275001 0.00379269650572 0.05)
(-5.241612003275001 0.004129386416980001 0.05)
(-5.241612003275001 0.004495897605804999 0.05)
(-5.241612003274999 0.004894876913824999 0.05)
(-5.241612003275494 0.005329205658387502 0.05000000000000001)
(-5.241612003274547 0.0058020204406075 0.05)
(-5.241612003275001 0.006316735797035 0.05)
(-5.241612003275001 0.006877068858485001 0.05000000000000001)
(-5.241612003275352 0.007487066194127499 0.05)
(-5.241612003274677 0.0081511330346775 0.05000000000000002)
(-5.241612003275 0.00887406508573 0.05)
(-5.241612003275 0.00966108316101 0.05)
(-5.241612003275 0.0105178708857 0.05)
(-5.241612003275001 0.0114506157419 0.05000000000000001)
(-5.241612003274999 0.01246605375295 0.05)
(-5.241612003275001 0.01357151812905 0.05)
(-5.241612003275001 0.01477499222575 0.05)
(-5.241612003275 0.01608516719755 0.05000000000000001)
(-5.241612003275 0.0175115047628 0.05000000000000001)
(-5.241612003275001 0.01906430553385 0.05000000000000001)
(-5.241612003275001 0.02075478340495 0.05)
(-5.241612003274999 0.022595146536 0.04999999999999999)
(-5.241612003275 0.0245986855166 0.05)
(-5.241612003275001 0.02677986934665001 0.05)
(-5.241612003275001 0.02915444992775001 0.05000000000000001)
(-5.241612003275 0.03173957581895 0.05)
(-5.241612003275 0.03455391607875 0.05000000000000001)
(-5.241612003275001 0.03761779508795002 0.05000000000000001)
(-5.241612003274998 0.04095333932665001 0.05)
(-5.241612003275 0.04458463716555001 0.05)
(-5.241612003275001 0.04853791282530001 0.05)
(-5.241612003275 0.05284171576065 0.05)
(-5.241612003275 0.05752712683670001 0.05)
(-5.241612003275001 0.0626279827861 0.05)
(-5.241612003275 0.06818112056849999 0.05)
(-5.241612003275001 0.07422664339695 0.05)
(-5.241612003274999 0.08080821035204999 0.05)
(-5.241612003275001 0.08797335167560001 0.05)
(-5.241612003275 0.09577381202084999 0.05)
(-5.241612003275 0.1042659241381 0.05)
(-5.241612003275 0.1135110156935 0.05000000000000001)
(-5.241612003275001 0.1235758521605 0.05000000000000001)
(-5.241612003275 0.134533118983 0.05)
(-5.241612003275 0.146461946488 0.05)
(-5.241612003275 0.1594484813415 0.05)
(-5.241612003275001 0.173586508678 0.05)
(-5.241612003275001 0.18897812939 0.05)
(-5.241612003275 0.205734497471 0.05000000000000002)
(-5.241612003275001 0.2239766227409999 0.05)
(-5.241612003275001 0.2438362447435 0.05)
(-5.241612003275 0.2654567841315 0.05)
(-5.241612003275 0.2889943784135 0.05)
(-5.241612003275001 0.3146190095345 0.05)
(-5.241612003275001 0.342515731437 0.05000000000000001)
(-5.241612003275001 0.3728860064695 0.05)
(-5.241612003275 0.405949160292 0.05)
(-5.241612003275 0.4419439657849999 0.05)
(-5.241612003275001 0.4811303673994999 0.05000000000000002)
(-5.241612003275001 0.5237913584035001 0.05)
(-5.241612003275001 0.5702350245820001 0.05)
(-5.241612003275001 0.620796769145 0.05000000000000001)
(-5.241612003275 0.6758417349170001 0.05000000000000001)
(-5.241612003275001 0.7357674412954999 0.05)
(-5.241612003275 0.801006655027 0.05)
(-5.241612003275 0.8720305155269999 0.05)
(-4.98576754825 8.0090245054e-06 0.05000000000000002)
(-4.985767548249999 2.408491245859999e-05 0.05)
(-4.985767548249999 4.033473493549999e-05 0.05)
(-4.985767548249999 5.687584362404999e-05 0.05000000000000002)
(-4.985767548250001 7.382769380020001e-05 0.05000000000000002)
(-4.985767548250001 9.131270700045003e-05 0.05000000000000002)
(-4.985767548249999 0.0001094571551155 0.05)
(-4.98576754825 0.0001283920722915 0.05)
(-4.985767548249999 0.000148254201222 0.05)
(-4.985767548249999 0.000169186980665 0.05)
(-4.985767548250001 0.0001913415813189999 0.05000000000000001)
(-4.98576754825 0.0002148779975335 0.05)
(-4.98576754825 0.000239966202745 0.05)
(-4.98576754825 0.000266787376978 0.05000000000000001)
(-4.985767548250001 0.000295535215276 0.05000000000000002)
(-4.985767548250001 0.0003264173265135 0.05000000000000001)
(-4.985767548249999 0.000359656732688 0.05000000000000001)
(-4.98576754825 0.0003954934795254999 0.05)
(-4.98576754825 0.0004341863700215 0.05000000000000001)
(-4.98576754825 0.0004760148334445 0.05)
(-4.98576754825 0.0005212809432974999 0.05000000000000001)
(-4.98576754825 0.0005703115988065001 0.05)
(-4.985767548249999 0.0006234608856979999 0.05)
(-4.98576754825 0.0006811126333054998 0.05)
(-4.98576754825 0.0007436831864784999 0.05)
(-4.985767548249999 0.0008116244123094998 0.05)
(-4.98576754825 0.0008854269633915 0.05)
(-4.985767548249999 0.0009656238211775 0.05000000000000001)
(-4.98576754825 0.001052794145015 0.05000000000000001)
(-4.985767548250001 0.00114756745468 0.05)
(-4.985767548249999 0.0012506281766 0.05)
(-4.985767548249999 0.001362720586575 0.05000000000000001)
(-4.98576754825 0.001484654184745 0.05000000000000001)
(-4.98576754825 0.001617309541565 0.05000000000000001)
(-4.985767548249999 0.00176164465704 0.05)
(-4.98576754825 0.00191870187914 0.05000000000000001)
(-4.98576754825 0.002089615431335 0.05)
(-4.98576754825 0.00227561960366 0.05)
(-4.98576754825 0.0024780576664 0.05000000000000001)
(-4.985767548250001 0.0026983915708 0.05)
(-4.985767548250001 0.002938212506900001 0.05000000000000001)
(-4.985767548249999 0.003199252394649999 0.05)
(-4.98576754825 0.003483396391345 0.05000000000000001)
(-4.985767548250001 0.003792696505720001 0.05000000000000001)
(-4.98576754825 0.00412938641698 0.05)
(-4.985767548250001 0.004495897605805 0.05000000000000001)
(-4.985767548249999 0.004894876913824999 0.05000000000000001)
(-4.985767548250001 0.005329205658385001 0.05000000000000001)
(-4.985767548250001 0.005802020440604999 0.05000000000000001)
(-4.985767548250001 0.006316735797034999 0.05)
(-4.98576754825 0.006877068858484999 0.05000000000000001)
(-4.98576754825 0.007487066194125 0.05)
(-4.98576754825 0.008151133034674999 0.05)
(-4.98576754825 0.00887406508573 0.05)
(-4.985767548249998 0.00966108316101 0.05000000000000001)
(-4.98576754825 0.0105178708857 0.05)
(-4.98576754825 0.0114506157419 0.05)
(-4.98576754825 0.01246605375295 0.05)
(-4.985767548249999 0.01357151812905 0.05)
(-4.985767548249999 0.01477499222575 0.05)
(-4.98576754825 0.01608516719755 0.05000000000000001)
(-4.98576754825 0.0175115047628 0.05)
(-4.98576754825 0.01906430553385 0.05000000000000001)
(-4.985767548249999 0.02075478340494999 0.05)
(-4.985767548249999 0.022595146536 0.05)
(-4.985767548249999 0.0245986855166 0.05)
(-4.985767548249999 0.02677986934665 0.05)
(-4.985767548249999 0.02915444992775 0.05)
(-4.98576754825 0.03173957581895 0.05000000000000001)
(-4.985767548249999 0.03455391607875 0.05)
(-4.985767548249999 0.03761779508795 0.05)
(-4.98576754825 0.04095333932665002 0.05000000000000001)
(-4.985767548249999 0.04458463716555001 0.05000000000000001)
(-4.98576754825 0.0485379128253 0.05000000000000001)
(-4.985767548249999 0.05284171576064998 0.05)
(-4.98576754825 0.05752712683670001 0.05000000000000002)
(-4.985767548250381 0.06262798278607501 0.05000000000000001)
(-4.985767548249649 0.06818112056847501 0.05000000000000001)
(-4.985767548249999 0.07422664339695 0.05)
(-4.98576754825 0.08080821035204999 0.05)
(-4.985767548250001 0.08797335167560003 0.05000000000000002)
(-4.98576754825 0.09577381202085 0.05)
(-4.98576754825 0.1042659241381 0.05)
(-4.985767548249999 0.1135110156935 0.05)
(-4.98576754825 0.1235758521605 0.05000000000000001)
(-4.98576754825 0.134533118983 0.04999999999999999)
(-4.985767548249998 0.146461946488 0.05)
(-4.985767548250001 0.1594484813415 0.05000000000000001)
(-4.98576754825 0.173586508678 0.05000000000000002)
(-4.98576754825 0.18897812939 0.05000000000000002)
(-4.985767548250001 0.205734497471 0.05000000000000001)
(-4.985767548249999 0.223976622741 0.05)
(-4.985767548249998 0.2438362447434999 0.05)
(-4.985767548249999 0.2654567841315 0.05)
(-4.98576754825 0.2889943784135 0.05)
(-4.985767548249999 0.3146190095344999 0.05)
(-4.98576754825 0.342515731437 0.05000000000000002)
(-4.985767548249999 0.3728860064694999 0.05)
(-4.985767548249999 0.4059491602920001 0.05)
(-4.98576754825 0.441943965785 0.05)
(-4.985767548250001 0.4811303673995 0.05000000000000001)
(-4.985767548249998 0.5237913584034999 0.05)
(-4.985767548250001 0.570235024582 0.05000000000000001)
(-4.98576754825 0.620796769145 0.05000000000000001)
(-4.985767548249999 0.6758417349169998 0.04999999999999999)
(-4.98576754825 0.7357674412955 0.05)
(-4.985767548249999 0.8010066550269999 0.05000000000000001)
(-4.98576754825 0.8720305155269999 0.05)
(-4.752805322734999 8.0090245054e-06 0.05)
(-4.752805322735 2.40849124586e-05 0.05)
(-4.752805322734999 4.033473493549999e-05 0.05)
(-4.752805322735 5.687584362405001e-05 0.05000000000000001)
(-4.752805322735 7.38276938002e-05 0.05)
(-4.752805322734999 9.131270700044999e-05 0.04999999999999999)
(-4.752805322734999 0.0001094571551155 0.05000000000000001)
(-4.752805322735001 0.0001283920722915 0.05)
(-4.752805322735001 0.000148254201222 0.05)
(-4.752805322735 0.000169186980665 0.05)
(-4.752805322734999 0.0001913415813189999 0.05)
(-4.752805322735 0.0002148779975335 0.05000000000000001)
(-4.752805322735001 0.0002399662027450001 0.05000000000000001)
(-4.752805322734999 0.0002667873769779999 0.05)
(-4.752805322734999 0.0002955352152759999 0.05)
(-4.75280532273558 0.0003264173265132499 0.05000000000000001)
(-4.752805322734462 0.0003596567326877499 0.05)
(-4.752805322735499 0.00039549347952525 0.05000000000000001)
(-4.752805322734537 0.0004341863700212499 0.05)
(-4.752805322734999 0.0004760148334444999 0.04999999999999999)
(-4.752805322735001 0.0005212809432975001 0.05000000000000002)
(-4.752805322735001 0.0005703115988065 0.05000000000000001)
(-4.752805322735335 0.00062346088569775 0.05)
(-4.752805322734692 0.0006811126333052501 0.05000000000000001)
(-4.752805322735284 0.0007436831864782501 0.05000000000000002)
(-4.752805322734737 0.0008116244123092499 0.05)
(-4.752805322734999 0.0008854269633914999 0.05)
(-4.752805322735 0.0009656238211774998 0.05)
(-4.752805322735 0.001052794145015 0.05000000000000001)
(-4.752805322735001 0.00114756745468 0.05)
(-4.752805322734999 0.0012506281766 0.05)
(-4.752805322735001 0.001362720586575 0.05000000000000002)
(-4.752805322735 0.001484654184745 0.05)
(-4.752805322735 0.001617309541565 0.05000000000000001)
(-4.752805322735 0.00176164465704 0.05)
(-4.752805322735 0.00191870187914 0.05000000000000001)
(-4.752805322734999 0.002089615431335 0.05)
(-4.752805322735001 0.00227561960366 0.05)
(-4.752805322735 0.0024780576664 0.05000000000000001)
(-4.752805322734999 0.0026983915708 0.05)
(-4.752805322735 0.0029382125069 0.05000000000000001)
(-4.752805322735 0.00319925239465 0.05)
(-4.752805322734999 0.003483396391345 0.05)
(-4.752805322734999 0.00379269650572 0.05000000000000001)
(-4.752805322735 0.004129386416980001 0.05)
(-4.752805322735001 0.004495897605805001 0.05000000000000001)
(-4.752805322735 0.004894876913824999 0.05)
(-4.752805322735 0.005329205658385001 0.05000000000000001)