/*--------------------------------*- C++ -*----------------------------------*\
| =========                 |                                                 |
| \\      /  F ield         | OpenFOAM: The Open Source CFD Toolbox           |
|  \\    /   O peration     | Version:  v1812                                 |
|   \\  /    A nd           | Web:      www.OpenFOAM.com                      |
|    \\/     M anipulation  |                                                 |
\*---------------------------------------------------------------------------*/
FoamFile
{
    version     2.0;
    format      ascii;
    class       volScalarField;
    location    "1792";
    object      k;
}
// * * * * * * * * * * * * * * * * * * * * * * * * * * * * * * * * * * * * * //

dimensions      [0 2 -2 0 0 0 0];


internalField   nonuniform List<scalar> 
44064
(
1.209957955122519e-07
3.361422103937646e-06
2.216751319335143e-05
7.786143536583334e-05
0.0001971360499641837
0.0004070085094106867
0.0007241808296548361
0.001142125758969981
0.001628161183994513
0.002136826318400527
0.002628300560581645
0.003079512106276398
0.003482595070355854
0.003832508782509222
0.004128356139841634
0.004372095316283885
0.004567294317469521
0.004718212362995671
0.004829322001043775
0.004904773829735956
0.004948347948888596
0.004963403147067745
0.004952870507676759
0.004919293561131937
0.004864883708346543
0.0047915484696894
0.004700950153817199
0.004594544258307057
0.004473623255343039
0.004339355846613135
0.0041928184223299
0.004035019290798391
0.003866918330941493
0.003689450078597786
0.003503568017551752
0.0033103388004319
0.003111111634593203
0.002907731082089947
0.002702593938534643
0.002498080765299742
0.002294709930501741
0.002093228928880368
0.001895091178104136
0.001701589991872199
0.001513875742176797
0.001333064303016232
0.001160277824933868
0.0009966290562434053
0.0008431857054666177
0.0007009671314422497
0.0005709925845228427
0.0004543007245968033
0.0003518425239452705
0.0002642721500232873
0.0001917446353609861
0.0001337905743914993
8.929628014637618e-05
5.661137952530228e-05
3.376792694380089e-05
1.873301059846165e-05
9.576065698179411e-06
4.514628247841036e-06
1.993258559389817e-06
8.502923264057882e-07
3.719737683317817e-07
1.854579118119897e-07
1.174528169011409e-07
9.426450998284409e-08
8.688084933482301e-08
8.468998861577364e-08
8.408566338359254e-08
8.393106626947248e-08
8.389447011595076e-08
8.388646252665419e-08
8.388483314761803e-08
8.388450926947636e-08
8.388442820501607e-08
8.388438631086681e-08
8.388434806983791e-08
8.388430797889309e-08
8.388426543525783e-08
8.388422059250963e-08
8.388417374144111e-08
8.388412522552354e-08
8.388407542842056e-08
8.388402476893194e-08
8.388397369533982e-08
8.388392267815453e-08
8.388387220135273e-08
8.388382275234705e-08
8.388377481113802e-08
8.38837288393547e-08
8.388368527003811e-08
8.388364449928316e-08
8.388360688105258e-08
8.388357272665598e-08
8.388354231063768e-08
8.38835158853142e-08
8.388349370901245e-08
8.388347609611416e-08
8.388346347364575e-08
8.3883456371493e-08
8.388345685510312e-08
8.388454926531367e-08
8.433171263030434e-08
2.132690082720687e-07
2.742344575522291e-05
0.002108119663686449
9.174066677097976e-08
2.548737973420569e-06
1.680781114076252e-05
5.909560852615431e-05
0.0001502457646244831
0.0003133159268780746
0.0005675390248624369
0.000918167856229399
0.001348822387012363
0.001825602020645007
0.00231122388242088
0.002777146647862151
0.003207113054525499
0.003595053796178282
0.003941783845104584
0.004248680324349529
0.004518284913255579
0.004753934990580325
0.004959238764691195
0.005137699010913293
0.005292508217880051
0.005426449038409669
0.005541862973861807
0.005640657998832882
0.005724335848585409
0.005794027248393089
0.005850528977515523
0.005894339561593729
0.005925692123197546
0.005944584291869278
0.005950805673258622
0.005943963862308286
0.005923510422346645
0.005888768708594688
0.00583896577882542
0.005773270478406692
0.005690838305971464
0.005590860046598341
0.005472605979822245
0.005335455193732624
0.005178909262100914
0.00500261499321126
0.004806402599335037
0.004590329199927016
0.004354713766117337
0.004100133823054509
0.003827334542398858
0.003537012326142738
0.003229687873925332
0.002907717797641993
0.002578052453984166
0.002250767281230617
0.001936294393879524
0.001639774722452258
0.001359289723081763
0.001095132923473891
0.0008517613526246447
0.0006344536440902531
0.00044842579376806
0.0002974761979207347
0.0001828112316725077
0.0001023675478399683
5.104942971001042e-05
2.198347189212294e-05
7.998673535644704e-06
2.524517314400679e-06
7.496470421194897e-07
2.435018122245982e-07
1.112325670879632e-07
7.90487645608919e-08
7.172137406568856e-08
7.015779997936031e-08
6.98447095277446e-08
6.978564018964398e-08
6.977485873292952e-08
6.977261561107079e-08
6.977172203860721e-08
6.977096157528651e-08
6.977014203273309e-08
6.976923557271144e-08
6.976823941617399e-08
6.976715493458154e-08
6.976598482051662e-08
6.976473281694729e-08
6.976340378515667e-08
6.97620038105903e-08
6.976054030782339e-08
6.975902211585681e-08
6.975745957793101e-08
6.975586460185468e-08
6.975425069766835e-08
6.975263299306853e-08
6.975102823139667e-08
6.974945476523696e-08
6.974793256994571e-08
6.974648331961564e-08
6.974513059388323e-08
6.974390032175423e-08
6.974282162308893e-08
6.974192833211777e-08
6.974126180946513e-08
6.974087602901936e-08
6.974086235049713e-08
6.975303754785786e-08
7.305969788691988e-08
7.247331390463483e-07
9.101235541819332e-05
0.00483137642377817
7.431668216245489e-08
2.064670440142823e-06
1.361635238527397e-05
4.789033005036495e-05
0.0001218935045787932
0.0002548994485030595
0.0004642597948167919
0.0007576711087474034
0.001125830864447414
0.001543010717611359
0.001977031391381586
0.002400473675285177
0.002795848535851339
0.003155182044340701
0.003477554375279693
0.003763608936226246
0.004015159859216537
0.004235077455147968
0.004426801406371625
0.004593959675430813
0.004740099317395578
0.004868446047707079
0.00498171574826085
0.005081690133695277
0.005169872648152047
0.005247514081501388
0.005315638335670058
0.005375066103062996
0.005426435444763912
0.005470219257186115
0.005506739949332472
0.00553618188993432
0.005558602340248435
0.005573941731570158
0.005582034320107328
0.005582620492668938
0.005575362350201481
0.005559864731866739
0.005535704665385114
0.005502331305558328
0.005458699562432789
0.005403364133726201
0.005334351646895003
0.005249440191982409
0.005146329388124811
0.005022740921231828
0.004876483749100827
0.004705518930431393
0.004508068663518573
0.004282824819946619
0.004029244312478112
0.003747726711869059
0.003439324184840897
0.003105109578234083
0.002749592521839436
0.002383658244026243
0.002020622194509575
0.001673674035535845
0.00134676040209214
0.00103992275256763
0.0007596346318138819
0.0005168013652057318
0.0003211819493485425
0.0001780055262429581
8.526898605274351e-05
3.377837192382513e-05
1.056843424261626e-05
2.668711810994338e-06
6.175988996451842e-07
1.686685642185465e-07
7.983727987710936e-08
6.358154411948021e-08
6.081343662116715e-08
6.037319628519912e-08
6.030719274436048e-08
6.029733987341436e-08
6.02953203507904e-08
6.02942613870459e-08
6.029324280681143e-08
6.029214710720791e-08
6.029095905752541e-08
6.028967618821978e-08
6.028829811302499e-08
6.028682544689657e-08
6.028525984049553e-08
6.028360415323464e-08
6.028186265693404e-08
6.028004126005593e-08
6.027814774980116e-08
6.027619205079558e-08
6.027418649992849e-08
6.027214613592256e-08
6.027008901302201e-08
6.026803653630717e-08
6.026601385034514e-08
6.026405030373908e-08
6.026218005285187e-08
6.026044290019226e-08
6.02588854991095e-08
6.025756307133599e-08
6.025654216435977e-08
6.025590615022605e-08
6.025587421935224e-08
6.029749307987381e-08
7.006080125639356e-08
1.746507090703432e-06
0.0001895116481277803
0.007999281089066366
6.591953979212365e-08
1.83138336583568e-06
1.207824908313592e-05
4.248898879351839e-05
0.0001082161861595104
0.0002266587625933198
0.0004141129376868093
0.0006792238640808222
0.00101602119561083
0.001403020123414317
0.001811023622730068
0.002213520864856526
0.002592502229961079
0.002938946166869428
0.003250899731170238
0.003528556410735935
0.003773149801039782
0.003987036920027447
0.004173233702210097
0.004335028089575791
0.004475721857658914
0.004598428919504307
0.004705921783620956
0.004800359542486034
0.004883261089968109
0.004955929194574563
0.005019472863773783
0.005074829300979505
0.005122783779658916
0.005163986792500856
0.005198968324979803
0.005228149330196586
0.005251850580525912
0.005270299092900988
0.005283632304901552
0.005291900135824034
0.005295065007519278
0.005292999822402401
0.005285483790710691
0.00527219584478864
0.005252706251368013
0.00522647081191498
0.005192832696004508
0.00515103714529171
0.005100262147601128
0.005039671502120441
0.004967613187459645
0.004881910766044093
0.004779702983764347
0.004657811232652504
0.004512988204898693
0.004342079694070898
0.004142140692161043
0.003910579295237771
0.003645418781417243
0.003345590403569385
0.003010980761987482
0.002646513475925613
0.002266352047510238
0.0018866354968632
0.001521348047147624
0.001176899470457716
0.0008569478097602286
0.0005732918137023047
0.000342514998363806
0.0001762328006556407
7.447139806941054e-05
2.425268118310646e-05
5.855255851275216e-06
1.151259010010045e-06
2.358815425747198e-07
8.13275712331495e-08
5.745921742287594e-08
5.404791725170943e-08
5.359476545369529e-08
5.353802170955571e-08
5.353056111766494e-08
5.352873731773913e-08
5.352744021138887e-08
5.352610918769499e-08
5.35246855444495e-08
5.352316310423886e-08
5.352154156044673e-08
5.35198220355859e-08
5.351800681781864e-08
5.351609950207983e-08
5.351410518085367e-08
5.351203065419522e-08
5.350988465674075e-08
5.350767810348468e-08
5.350542435780565e-08
5.350313952684395e-08
5.350084279937343e-08
5.349855683481994e-08
5.349630824176213e-08
5.34941281798855e-08
5.349205315496674e-08
5.349012611885648e-08
5.34883980579582e-08
5.348693016447706e-08
5.348579585430859e-08
5.348508860265444e-08
5.348530969760795e-08
5.359746354905834e-08
7.653337955513751e-08
3.573450692883696e-06
0.0003258007013752099
0.01154103791990922
6.082281180604517e-08
1.689787205866496e-06
1.114464201728412e-05
3.92096692282229e-05
9.990565429753947e-05
0.0002094660413523639
0.0003834712256036262
0.0006310233273211645
0.0009481071954465842
0.001315913606112686
0.001707283401239833
0.002096456920318044
0.002465196255606708
0.002803814024544622
0.003109585112978638
0.003382549577292191
0.003623603807657794
0.003834790699258211
0.004018864632237812
0.004178900884400872
0.004318031261343986
0.004439265097902015
0.004545300299444884
0.00463842848320998
0.004720140501273351
0.004791721948142926
0.004854273810164465
0.004908733612037964
0.004955895183484282
0.004996426206444028
0.005030883304076519
0.005059724690451407
0.005083320527851893
0.005101961182886878
0.005115863574842054
0.005125175792680309
0.005129980134204327
0.005130294700407082
0.005126073666427885
0.005117206354424053
0.005103515160032897
0.005084751974935508
0.005060592482269761
0.005030628124974258
0.004994355740245235
0.004951164436654493
0.004900318625619861
0.004840950276243373
0.004772075919184672
0.004692458442909603
0.00459990937130266
0.00449152360801685
0.00436371242519063
0.004212563745402246
0.004034092011590443
0.003824391596017084
0.003579758689336195
0.003296988513206997
0.002973977479899843
0.002612185666382028
0.002226017575654166
0.001835996279510957
0.001456802452677404
0.001098366048311894
0.0007672180982769508
0.0004789716839078203
0.0002558404669188279
0.0001104874970038655
3.581835708052196e-05
8.165535912258181e-06
1.411485376530671e-06
2.438159566481189e-07
7.401725717266195e-08
5.156031488093221e-08
4.88159859087258e-08
4.850443526309959e-08
4.847068150906883e-08
4.846626123734189e-08
4.846463822503119e-08
4.846317918458619e-08
4.846163934937668e-08
4.845999674989088e-08
4.84582496039978e-08
4.845639874763576e-08
4.845444636294631e-08
4.845239607016761e-08
4.845025314206207e-08
4.844802474346179e-08
4.844572018828675e-08
4.844335121433497e-08
4.844093227791611e-08
4.843848087280282e-08
4.84360178874205e-08
4.843356801130618e-08
4.843116023026619e-08
4.842882845190609e-08
4.84266123349376e-08
4.842455843454001e-08
4.84227219286427e-08
4.84211693286642e-08
4.84199804439109e-08
4.84192544028657e-08
4.842004988023961e-08
4.866653005468922e-08
9.426506237429383e-08
6.426653608315993e-06
0.0004984824859267024
0.01537250538192497
5.729591736840123e-08
1.591803662675836e-06
1.049857153138796e-05
3.693990137246355e-05
9.414995483128782e-05
0.0001975406445818624
0.0003621552691619094
0.0005973415447131281
0.0009003828366899872
0.001254349679342272
0.001633598846378462
0.002012996609882285
0.002374201460498789
0.002707063722967853
0.003008283778193696
0.003277812031939054
0.003516308945804633
0.003725597308286652
0.003908252323069304
0.004067209914677068
0.004205495723922052
0.004326050523384605
0.004431528491656601
0.004524258002312137
0.004605716711849873
0.004677180679565577
0.004739745440130998
0.004794346431882229
0.004841778406794618
0.004882712880699447
0.004917713340703404
0.004947248200768932
0.00497170163946271
0.004991382507291024
0.005006531497855199
0.005017326760294958
0.00502388810283624
0.005026279905281618
0.00502451282531736
0.005018544350976771
0.005008278219747401
0.004993562694890895
0.004974187670286413
0.0049498805800626
0.004920301126921378
0.004885034929704417
0.004843586366603321
0.004795369998612718
0.004739698574623265
0.00467576634505141
0.004602631700181295
0.00451922686594885
0.004423679833594315
0.00431324321788029
0.004184354604657089
0.004032864003734033
0.003854258314494382
0.003643794921417402
0.003396640705557125
0.003108272621516953
0.002775607826213353
0.00240219316413857
0.002006895130697255
0.001611656956557088
0.001232783227335672
0.0008769236561503957
0.0005565748185513862
0.0002987830295805416
0.0001265543899770459
3.871116879636471e-05
7.931337358972669e-06
1.195634216939796e-06
1.871301283713497e-07
6.06655847805007e-08
4.622547137619354e-08
4.470156030278611e-08
4.455166678129438e-08
4.453692025623414e-08
4.453440646339094e-08
4.453283393887819e-08
4.453123893715906e-08
4.452954406266485e-08
4.452774340857773e-08
4.452583736468212e-08
4.452382791752762e-08
4.452171852001981e-08
4.451951430251053e-08
4.451722232606146e-08
4.451485185849662e-08
4.451241467334751e-08
4.450992537455954e-08
4.450740175203688e-08
4.450486518165533e-08
4.450234108155931e-08
4.449985946222379e-08
4.449745561467437e-08
4.449517101159533e-08
4.449305449867546e-08
4.449116398320012e-08
4.448956955977589e-08
4.44883567322053e-08
4.448763048434821e-08
4.448936947787155e-08
4.49476674030551e-08
1.242547272955084e-07
1.044517749196745e-05
0.0007059230859184693
0.01947979939883106
5.467494249622461e-08
1.518988133037907e-06
1.001843904363337e-05
3.525287141429059e-05
8.986999922374169e-05
0.0001886629460443134
0.0003462525355047663
0.0005721281951760132
0.0008645036659836391
0.001207857199640596
0.00157773030518981
0.001949517471557909
0.00230483501592409
0.002633191809126265
0.002930842718042304
0.003197674286540964
0.003434166615585975
0.003641973603729491
0.00382353369537346
0.003981677484959542
0.00411935168010908
0.004239440533374062
0.004344568907380462
0.00443704795084446
0.004518385055725118
0.004589849853600643
0.004652534850724108
0.004707375142102777
0.004755167379541036
0.004796586964418489
0.004832203137199942
0.004862491924731183
0.004887847062901105
0.004908589074972423
0.004924972699464511
0.004937192849882734
0.00494538926512879
0.004949649981076785
0.004950013724243391
0.004946471299526848
0.004938966016487544
0.004927393173052976
0.004911598591811534
0.004891376182278481
0.004866464483869763
0.004836542130450194
0.004801222169820474
0.004760045171538382
0.00471247111087455
0.00465787023897367
0.004595513244051805
0.004524559351297892
0.004444038723146047
0.004352835206973658
0.004248788712230725
0.004128910844673855
0.003989368018639371
0.003825695346704714
0.003632888188037636
0.003405438162952096
0.003137548967233396
0.002824113868282135
0.002463134808799936
0.002069377561659132
0.001668441546412068
0.001277832190071332
0.0009078326481855997
0.0005717647580373033
0.0002985787398766521
0.0001186489624963685
3.228941269648212e-05
5.632251709423524e-06
7.37777500885518e-07
1.163239539946399e-07
4.878742567956942e-08
4.207005638713032e-08
4.145180783311288e-08
4.139804431226396e-08
4.139250779950198e-08
4.139069908671831e-08
4.138906749818883e-08
4.138734944506808e-08
4.138552657359847e-08
4.138359845530921e-08
4.1381566983829e-08
4.13794355669036e-08
4.137720930040684e-08
4.1374895222347e-08
4.137250259266814e-08
4.137004319753556e-08
4.136753168163351e-08
4.136498591464626e-08
4.136242740625333e-08
4.135988178352469e-08
4.135737936734361e-08
4.135495589456461e-08
4.135265347585351e-08
4.135052186181853e-08
4.134862000392896e-08
4.134701905538583e-08
4.134580806652483e-08
4.13451017346115e-08
4.134825207758974e-08
4.210931331118609e-08
1.679380321124826e-07
1.581091912428585e-05
0.0009499363319176407
0.02390651431480116
5.263072336372571e-08
1.462195896481645e-06
9.643954359889612e-06
3.39369121361983e-05
8.653024963864046e-05
0.0001817294417375756
0.000333811491519792
0.0005523507595839431
0.0008362635585408982
0.00117113042115179
0.001533452210508363
0.001899076059533028
0.002249609169868155
0.002574296816582072
0.002869035759216182
0.003133663268363585
0.003368514842688847
0.003575108131897468
0.003755770743828604
0.003913247472690492
0.004050420983153061
0.004170129576358477
0.004274973680424484
0.004367250384488804
0.004448488843101278
0.004519953812108059
0.004582735658722807
0.004637769506272847
0.00468585384207014
0.00472766748925172
0.004763784577372704
0.004794687447003052
0.004820777590423038
0.004842384800282241
0.004859774716754074
0.004873154956017934
0.004882679982612465
0.004888454862600138
0.00489053800740473
0.004888942991462346
0.004883639501189055
0.004874553448452648
0.004861566258741955
0.004844513322601942
0.004823181579073741
0.004797306182890849
0.004766566195378604
0.004730579236954672
0.004688895052188374
0.004640987973603925
0.004586248343078206
0.004523973103306672
0.004453356212740847
0.004373478484777066
0.004283293900334908
0.004181011145900211
0.004063959998814336
0.003928605442498049
0.003770640262936494
0.003585021479710825
0.003365922302977856
0.003106832009867575
0.002801431383293081
0.002446460541322085
0.002053967845259505
0.001649331648536157
0.001253065399216678
0.0008763783911805723
0.0005346121901604271
0.0002618378156722352
9.26342447601848e-05
2.100642801249826e-05
2.992682006862581e-06
3.521701566856088e-07
6.834209425151914e-08
4.138185638438395e-08
3.902664287615149e-08
3.883548060450476e-08
3.881990989826847e-08
3.881741833850269e-08
3.881573812495891e-08
3.8814011903376e-08
3.881218395773551e-08
3.881025165404199e-08
3.880821673278565e-08
3.88060825606129e-08
3.880385420060579e-08
3.880153866297652e-08
3.87991451870905e-08
3.87966855486508e-08
3.879417439558535e-08
3.879162961901249e-08
3.87890727736629e-08
3.878652956311988e-08
3.878403042531717e-08
3.878161126120989e-08
3.877931440933109e-08
3.877719000790462e-08
3.877529750976582e-08
3.87737078310765e-08
3.877251121771224e-08
3.877183780630691e-08
3.877693878535435e-08
3.994415554572776e-08
2.272474698909693e-07
2.276685150073682e-05
0.001234789535805664
0.0286987132319125
5.098227233834488e-08
1.41639880808187e-06
9.341966545377091e-06
3.28756186750965e-05
8.383603657467619e-05
0.000176132179065517
0.0003237543903366958
0.0005363284105271095
0.000813320958256871
0.001141203000881426
0.001497271919532982
0.001857767595947421
0.002204306868537274
0.002525925119240418
0.002818223786463014
0.003081000337278109
0.003314470937617018
0.003520040241883976
0.003699943533120703
0.003856853912620704
0.003993600350893685
0.004112982473371742
0.004217579706917389
0.004309677033266074
0.004390820943345529
0.004462272016054967
0.004525118713134214
0.004580296047799833
0.004628603889435165
0.004670723746725452
0.004707233632565123
0.004738620923726191
0.004765293303460191
0.004787587950683078
0.004805779161981344
0.004820084587870553
0.004830670246782189
0.00483765445655014
0.004841110797829505
0.004841070198793927
0.004837522206398823
0.00483041548667856
0.00481965757486833
0.004805113875420867
0.004786605892193738
0.00476390865039958
0.004736747255111881
0.004704792517848652
0.004667655576262684
0.00462488143821096
0.004575941411776457
0.004520224456632572
0.004457027635406543
0.004385546092828365
0.00430486353244051
0.004213941910857261
0.004111031401623499
0.003993551320021944
0.00385807408652002
0.003700365366283109
0.003515341537886576
0.003296938685597864
0.003038166577880311
0.00273209153310054
0.002375081793426217
0.001979709400285597
0.001572233494506781
0.001174429057160851
0.0007963925774260579
0.0004575754176381017
0.0002009540083155643
5.935926392076925e-05
1.051107363363955e-05
1.217041382288261e-06
1.447989169843795e-07
4.566275435148076e-08
3.736037799337022e-08
3.671865324453542e-08
3.667163249349726e-08
3.666711907433431e-08
3.666532178050816e-08
3.666359318685244e-08
3.666177028644316e-08
3.665984449033153e-08
3.665781720375288e-08
3.665569173958614e-08
3.665347311393003e-08
3.665116828407176e-08
3.66487864306548e-08
3.664633926617647e-08
3.664384137291613e-08
3.664131057685025e-08
3.663876837170652e-08
3.663624040969341e-08
3.663375709498894e-08
3.663135431552008e-08
3.662907440186783e-08
3.662696757077988e-08
3.662509365037355e-08
3.662352300809208e-08
3.662234447818653e-08
3.662170828039991e-08
3.662930985206925e-08
3.831324995156261e-08
3.042626651799124e-07
3.161139300113427e-05
0.001566017110369373
0.03388128037937886
4.962025038968446e-08
1.378559240235921e-06
9.092447882161128e-06
3.199865801563563e-05
8.160924564216882e-05
0.0001715033150856461
0.0003154279054900706
0.0005230392974004925
0.0007942473419868287
0.00111625907203827
0.001467045555204361
0.001823190851829844
0.002166332251263351
0.002485334050207099
0.002775549348982482
0.00303674253163721
0.003269029223718943
0.003473718479679113
0.003652967151378837
0.003809387227994024
0.003945761719480016
0.00406485697589466
0.004169234044135003
0.004261167242492046
0.00434221764813928
0.004413642128633505
0.004476527358928522
0.004531808080372893
0.004580285143055474
0.004622642123705925
0.004659460095505529
0.004691230443364373
0.004718365800588109
0.004741209263068953
0.004760042062916907
0.004775089881059237
0.004786527962130834
0.004794485172743921
0.004799047120154645
0.004800258424448344
0.004798124214467007
0.004792610896029658
0.004783646220446405
0.004771118661583087
0.004754876090639665
0.004734723719168075
0.004710421262915473
0.004681679262531821
0.004648154483753961
0.00460944431277315
0.004565080068482922
0.00451451918389203
0.004457136285258882
0.004392213358861798
0.00431892950416327
0.004236351327277529
0.004143423400210013
0.004038255361655732
0.00391819158777124
0.003779747214119848
0.00361862743138109
0.003429598663452133
0.003206286226091312
0.002941262882971904
0.002627344641774502
0.002261566749408214
0.001859975565593524
0.001450456715170997
0.00105430506443924
0.0006800075613576705
0.0003545754538997834
0.0001316949571150109
3.010723506588234e-05
3.996307978230349e-06
4.004416864544056e-07
6.426165969471742e-08
3.701469404121992e-08
3.498957081614189e-08
3.48496048498142e-08
3.483934848151145e-08
3.483723227899128e-08
3.483549658030989e-08
3.483368430698943e-08
3.483177128139036e-08
3.48297581240467e-08
3.482764807819757e-08
3.48254461110891e-08
3.482315911934286e-08
3.482079620878347e-08
3.481836900214791e-08
3.481589197668689e-08
3.481338283848106e-08
3.481086294720786e-08
3.480835780841483e-08
3.48058976723895e-08
3.48035182742581e-08
3.480126175862414e-08
3.479917811822195e-08
3.479732738965132e-08
3.479577969117261e-08
3.479461986491067e-08
3.479402008300359e-08
3.480465392992801e-08
3.712135687741398e-08
4.017035857624386e-07
4.273198918631583e-05
0.001950476904021206
0.03946209898033738
4.847135826196191e-08
1.346640810462607e-06
8.881971760155944e-06
3.125887244629149e-05
7.973039906513296e-05
0.0001675958340295644
0.0003083923870345206
0.0005117935182141505
0.0007780742537779516
0.001095062335758262
0.001441308112738101
0.001793700384335413
0.00213390310838836
0.002450638224723712
0.002739046291960025
0.002998863630308116
0.003230119637260216
0.003434041070079846
0.003612717009688971
0.003768706463061309
0.003904752427580054
0.004023592130655605
0.004127770292812622
0.004219551680330172
0.004300509993564017
0.00437189872670298
0.004434802840620635
0.00449015666288458
0.004538761699135438
0.004581303104161436
0.004618364365456921
0.004650440075765208
0.004677946859652341
0.004701232603442846
0.004720584166422178
0.004736233750812951
0.00474836409331715
0.00475711261997205
0.004762574683024295
0.004764805975586936
0.004763824197888201
0.004759610028239152
0.004752107432299804
0.004741223325567954
0.004726826585946513
0.004708746395527547
0.004686769873332273
0.004660638943963595
0.004630046371941486
0.004594630880014367
0.004553971266103451
0.004507579445564324
0.004454892387380668
0.004395263010771705
0.004327950309853263
0.004252109366484905
0.00416678263493393
0.004070737407143934
0.00396190699603353
0.003837461729471149
0.003693760895892113
0.003526313724444769
0.003329569630297203
0.003096683071448067
0.00281978954525681
0.002491988222302865
0.002112657310505046
0.001703870256689446
0.001295985746148198
0.0009017540201864627
0.0005357354274125141
0.0002406758184942482
7.008826170713471e-05
1.154166554115078e-05
1.174314459056728e-06
1.234114112778853e-07
3.971392971521537e-08
3.368890603904522e-08
3.328878855901097e-08
3.32629820024837e-08
3.32600217659172e-08
3.325825624901867e-08
3.325645691711816e-08
3.325456019976286e-08
3.325256484833244e-08
3.325047399362707e-08
3.324829255256934e-08
3.32460273579397e-08
3.324368743325218e-08
3.324128429840226e-08
3.323883230543552e-08
3.323634901140839e-08
3.323385560182404e-08
3.323137738084255e-08
3.322894436972506e-08
3.322659206114135e-08
3.322436231935881e-08
3.322230468312019e-08
3.322047910919834e-08
3.321895616917919e-08
3.321781476039387e-08
3.321724776928243e-08
3.323143673934772e-08
3.630700861060589e-08
5.23814225028116e-07
5.665424218192885e-05
0.002396640338272805
0.04543955742404847
4.74850707109081e-08
1.319239837236672e-06
8.701283022095774e-06
3.062375188921682e-05
7.811709987791094e-05
0.0001642392318061751
0.0003023438431082766
0.0005021127669549571
0.0007641279801523916
0.00107674969728654
0.001419033635716723
0.001768141095169805
0.00210576621139949
0.002420510333839474
0.002707329262387506
0.002965935175006057
0.003196282398811324
0.003399525796953122
0.003577695049601069
0.00373330258995521
0.003869056117924124
0.003987667052108037
0.004091665455183527
0.00418330745195154
0.004264177766997365
0.004335526806936975
0.004398437894097868
0.004453844848489853
0.004502549593859676
0.004545238497301797
0.004582496974476959
0.004614822221799684
0.004642634130945623
0.004666284528878187
0.004686064917602649
0.004702212889174518
0.004714917378042092
0.004724322892753877
0.004730532846855396
0.004733612086624891
0.004733588692084696
0.004730455107802929
0.004724168641246135
0.004714651348607636
0.004701789310780369
0.004685431285138337
0.004665386701828023
0.004641422956320471
0.004613261933424574
0.004580575682882876
0.004542981155357157
0.004500033904630784
0.004451220675668
0.004395950844456199
0.004333546783077372
0.00426323344512943
0.004184127901057689
0.004095230360586868
0.003995009295073673
0.003881160252419124
0.003750602731933438
0.003599449224426408
0.003422873375241028
0.003214820259342247
0.002967811734842327
0.002673613077106595
0.002326189319114761
0.001933003179735592
0.001520507645031334
0.001115605473195134
0.0007268591775683315
0.0003799066397367974
0.0001366471849753474
2.85368860886215e-05
3.296745917926332e-06
2.9197085067898e-07
5.003305004415532e-08
3.304646326181864e-08
3.195281372550374e-08
3.188672225744087e-08
3.188162494653874e-08
3.187976937450259e-08
3.187798219174883e-08
3.187610363605622e-08
3.187412807271499e-08
3.187205841876181e-08
3.186989953630652e-08
3.186765819127094e-08
3.186534331918015e-08
3.18629663279251e-08
3.186054143078213e-08
3.185808601667566e-08
3.1855621071329e-08
3.185317166402042e-08
3.185076753887825e-08
3.184844388275609e-08
3.18462422418628e-08
3.184421158144779e-08
3.184241136463811e-08
3.184091345601631e-08
3.183978993454573e-08
3.183925032647364e-08
3.185753817680861e-08
3.583742622409934e-08
6.772708813388879e-07
7.409365032070356e-05
0.00291474613615295
0.05180702452799424
4.66239093253521e-08
1.29531510210018e-06
8.54351622361863e-06
3.006917679297678e-05
7.670818646832903e-05
0.0001613067944037237
0.0002970558272332155
0.0004936394136335662
0.0007519022683443463
0.001060668969194149
0.001399442728227097
0.001745631644138324
0.002080962648641263
0.00239393855758548
0.002679364020938157
0.002936893002094095
0.00316642947783945
0.003369067465070428
0.003546784224647031
0.003702050622867827
0.003837542721340621
0.00395594873452028
0.004059785396507796
0.004151300944520612
0.004232089706555447
0.00430339928260469
0.004366311463616312
0.004421759529330617
0.004470545670541662
0.00451335721039859
0.004550781138345213
0.004583316804502818
0.004611386821131527
0.004635346308824323
0.004655490658242526
0.004672061981021723
0.004685254411125521
0.004695218398715019
0.004702064117088351
0.004705864081685027
0.004706655059520892
0.004704439328086526
0.004699185324592579
0.004690827709240647
0.004679266849571147
0.004664367716514292
0.004645958166227621
0.004623826564918361
0.004597718696655899
0.004567333877147832
0.004532320180835851
0.004492268677249573
0.004446706570743944
0.004395089155933707
0.004336790558869435
0.004271093367950289
0.004197177538352746
0.004114109512910697
0.004020792975679557
0.00391532463884513
0.003795089676460707
0.003656688144738907
0.003495888361061954
0.003307382796915561
0.003084446730289752
0.002818962251254031
0.002502945523677518
0.002133355476552074
0.001727622323790565