/*--------------------------------*- C++ -*----------------------------------*\
| =========                 |                                                 |
| \\      /  F ield         | OpenFOAM: The Open Source CFD Toolbox           |
|  \\    /   O peration     | Version:  v1812                                 |
|   \\  /    A nd           | Web:      www.OpenFOAM.com                      |
|    \\/     M anipulation  |                                                 |
\*---------------------------------------------------------------------------*/
FoamFile
{
    version     2.0;
    format      ascii;
    class       volScalarField;
    location    "5702";
    object      k;
}
// * * * * * * * * * * * * * * * * * * * * * * * * * * * * * * * * * * * * * //

dimensions      [0 2 -2 0 0 0 0];


internalField   nonuniform List<scalar> 
44064
(
1.116366388093257e-07
3.101415698438569e-06
2.045410064586378e-05
7.186806951573662e-05
0.0001821585214822841
0.0003770001684466529
0.000673641430855046
0.001068787977710787
0.001534314788446404
0.002028060371100288
0.002510930917522204
0.002957483669332163
0.003360375259533919
0.003714127646054621
0.004017296916468785
0.004271342228603856
0.004479417064966522
0.004645448633845847
0.004773634513533206
0.004867919165172268
0.004931909548447729
0.004968808603498904
0.004981398150226504
0.004972063280734407
0.004942848998033092
0.004895486789873356
0.004831437055895125
0.004751933239281915
0.004658024367300831
0.004550612560082161
0.004430485735574659
0.004298345876604777
0.004154832700845982
0.004000541730028492
0.003836035072159329
0.003661844130426204
0.00347846895684764
0.003286393599792881
0.003086163383887745
0.002878598489900019
0.00266521683516681
0.002448889018162232
0.002233872802137363
0.002023282658825386
0.001817215320254227
0.001616257688300719
0.001422050076560385
0.001236065334051878
0.001059717498049508
0.0008943193425958105
0.0007410997004423953
0.0006012664225309122
0.0004760198444138235
0.0003664199715711273
0.0002731586303340274
0.0001963504112049686
0.0001354055763361052
8.902694427628052e-05
5.534746821199533e-05
3.216251719307508e-05
1.726629830351497e-05
8.517889040132213e-06
3.884251560041051e-06
1.667666406927609e-06
6.993183770289087e-07
3.079312078065942e-07
1.603468646484179e-07
1.083222713331281e-07
9.118342976935538e-08
8.591656910607232e-08
8.441085518284064e-08
8.401117280068725e-08
8.39128237719783e-08
8.389046130750121e-08
8.38857671783076e-08
8.388483300962579e-08
8.388463436702562e-08
8.388456607786788e-08
8.388451620692236e-08
8.388446658739295e-08
8.388441480386609e-08
8.38843606732613e-08
8.388430446437355e-08
8.388424656524067e-08
8.388418737592764e-08
8.388412724537197e-08
8.38840679760967e-08
8.388400286907051e-08
8.388394467482328e-08
8.388389410917445e-08
8.388383658024046e-08
8.388378193986177e-08
8.388373107525038e-08
8.3883681200864e-08
8.38836435917981e-08
8.388359721865256e-08
8.388355485437117e-08
8.388353295741281e-08
8.388351312412476e-08
8.388349465575782e-08
8.388348147056892e-08
8.388347428887892e-08
8.388347558157978e-08
8.388423696594222e-08
8.417861215790451e-08
1.642031291290656e-07
1.639659972789395e-05
0.002103245694825134
8.928504643804453e-08
2.480514833158149e-06
1.635771305919155e-05
5.750941403403723e-05
0.0001461873198170646
0.0003047506049521725
0.0005517570468683104
0.0008921420794166346
0.00130987597627041
0.001771922809254812
0.002241843028365331
0.002691584984672647
0.003105264351043824
0.003477593628410912
0.003808381326813848
0.004098450006096084
0.004350183694887988
0.004566885281444329
0.004752196040000385
0.00490969899970522
0.00504270841470154
0.005154167232967816
0.005246613550066804
0.00532218719208621
0.005382657065162333
0.005429456294368325
0.005463719121824639
0.005486316433392929
0.005497887593523039
0.005498868299166018
0.005489514519887902
0.005469922946343354
0.005440048581247513
0.005399720285792099
0.005348655323318842
0.005286474266732744
0.005212717998991053
0.005126868618859555
0.005028375026419436
0.004916680196151563
0.004791238560880567
0.004651498047754307
0.004496809325374268
0.004326245688684062
0.004138435760893787
0.003931697909590673
0.003704565563837942
0.003456113690510242
0.003185862235540758
0.002894137516073992
0.002585716359854698
0.002271173433067627
0.001962497092325731
0.001670335702655146
0.001394922355398397
0.001134363195449416
0.0008916521673318254
0.0006719459089128766
0.0004807664534718266
0.0003230073210045058
0.0002012294375027045
0.0001142865840946063
5.778507616885428e-05
2.519421671537869e-05
9.251156812495433e-06
2.924506841060089e-06
8.611211723344718e-07
2.732218139296214e-07
1.191108467685323e-07
8.113535621973857e-08
7.226484416269692e-08
7.029496953648027e-08
6.987885005712495e-08
6.979502748682877e-08
6.977864995249119e-08
6.977519236923938e-08
6.977401304692808e-08
6.977315084419023e-08
6.977226746296407e-08
6.977130810529795e-08
6.977026473091294e-08
6.976913755527073e-08
6.976792867542042e-08
6.976664114302526e-08
6.976527895018137e-08
6.97638466107849e-08
6.976235247492201e-08
6.976079624413299e-08
6.975917183049318e-08
6.975754537413014e-08
6.975592503812984e-08
6.975428650509395e-08
6.975262359699663e-08
6.97509396338352e-08
6.974925605280857e-08
6.974753870477395e-08
6.974606556509225e-08
6.974483530590552e-08
6.974375897907472e-08
6.974286881676224e-08
6.97422108462876e-08
6.974184084288622e-08
6.974184214444802e-08
6.974798215487992e-08
7.147422240040732e-08
4.342955310367033e-07
5.598976691456414e-05
0.004794336898006163
7.455487624647974e-08
2.071287669671416e-06
1.365994608881523e-05
4.804270467117442e-05
0.0001222736146842327
0.0002556567502928124
0.0004655121265852627
0.0007593984440468259
0.001127793749016388
0.00154477662731184
0.001978085377112172
0.002400315399674438
0.002794033707698798
0.003151377732261139
0.0034717348233154
0.003755355675310879
0.004003914957191064
0.004220164677899299
0.004407394676440684
0.00456903878496335
0.004708439601054192
0.004828706532811786
0.004932556511107478
0.00502229280202091
0.005099477351922647
0.00516531661179278
0.00522081693559274
0.005266805849472295
0.005303951678729336
0.005332781001295151
0.005353693808330891
0.005366976567470211
0.005372813554630072
0.005371296927858826
0.005362436108320868
0.005346167139453108
0.005322362839065378
0.005290844763499416
0.005251398298017988
0.005203792626454823
0.005147733452301737
0.005082543875065327
0.00500726488972463
0.004920579885133585
0.004820958190464041
0.004706733965695604
0.004576138691650897
0.004427279084602115
0.004258045534164088
0.004065990263055384
0.003848385297600505
0.003602759150909151
0.00332760710669652
0.003022393345705423
0.002689524830828724
0.002339788676037566
0.0019886689737736
0.00165001247056923
0.001331591424670112
0.001033138833826636
0.0007589347539221648
0.0005195973195582639
0.0003248827263753721
0.0001809354570485878
8.693307594909967e-05
3.447429639604618e-05
1.077478200253199e-05
2.7109996105937e-06
6.245667326727202e-07
1.700329147565953e-07
8.021880141189703e-08
6.370322431256666e-08
6.085100495060112e-08
6.038499977839563e-08
6.031199955153754e-08
6.030041708062573e-08
6.029794910809956e-08
6.029671336896193e-08
6.029557004020217e-08
6.029435983706605e-08
6.029306058689175e-08
6.029166914453311e-08
6.029018543020834e-08
6.028861040673706e-08
6.028694609424712e-08
6.028519445096153e-08
6.028336214565287e-08
6.028144887934279e-08
6.027944547821378e-08
6.027745726300878e-08
6.027546667864716e-08
6.027342707833648e-08
6.027133531324772e-08
6.026919835099599e-08
6.026704039477267e-08
6.026484016205095e-08
6.026285693574931e-08
6.026111675614517e-08
6.025954538986305e-08
6.025821148863825e-08
6.025718631572026e-08
6.025655506096182e-08
6.025646739082952e-08
6.027603735054963e-08
6.529858627197026e-08
1.008532917784039e-06
0.0001236956336165113
0.007891265554292828
6.615248275738279e-08
1.837854897040201e-06
1.212091289364474e-05
4.263872827633163e-05
0.0001085947099536332
0.000227437254845686
0.000415484820933491
0.0006813423775578873
0.001018928278074094
0.001406623703812434
0.001815142172507048
0.002217950048441111
0.002597058625558766
0.002943492570378769
0.0032553807102426
0.003532853718612441
0.003777127960289374
0.003990539755078504
0.004176068002714649
0.004336942259480002
0.004476390460264515
0.004597476405644383
0.004702906794452749
0.004795010703939698
0.004875258304844101
0.004944906004036635
0.005005017671801879
0.005056486112184782
0.00510005292785323
0.005136326058678025
0.005165794812783258
0.005188842464355881
0.005205756616330235
0.005216737569517162
0.005221904942854081
0.005221302773193928
0.005214903298383146
0.00520260959896915
0.005184257242640376
0.005159615039320904
0.005128384968602542
0.00509020175073859
0.005044634974935792
0.004991196279935264
0.00492935550176822
0.004858569379599926
0.004777726981850637
0.004685306866207484
0.004579292003670376
0.004457353273091732
0.004316977264283805
0.004155546991889487
0.003970359318618735
0.003758540480017932
0.003516897642020221
0.00324197878909
0.002930728082287374
0.002584098228092348
0.002215699680812214
0.001845110301301543
0.001487353055721328
0.001151013500978811
0.0008391883678688205
0.0005620311264696693
0.0003359050991418254
0.000172532245215178
7.25886149701261e-05
2.346238506744674e-05
5.619554781646989e-06
1.100401869493412e-06
2.26911419919509e-07
7.996485914300458e-08
5.728622314620759e-08
5.403274468391868e-08
5.35957842449626e-08
5.353981150429609e-08
5.35321603014671e-08
5.353023811987879e-08
5.352889140844874e-08
5.352752331327855e-08
5.352606583123172e-08
5.352451105675638e-08
5.352285819282856e-08
5.352110784258138e-08
5.351926197929508e-08
5.351732217465586e-08
5.351529481618081e-08
5.351318142016368e-08
5.351097387991214e-08
5.350875881063637e-08
5.350652722712735e-08
5.350424186777201e-08
5.35019029812046e-08
5.349952009129661e-08
5.349711743684489e-08
5.349468275965488e-08
5.349243452247397e-08
5.349042279752567e-08
5.348861358913048e-08
5.348707872012649e-08
5.348589708797361e-08
5.348516860112444e-08
5.34851616974234e-08
5.353731825731823e-08
6.550189970285954e-08
2.088133145827734e-06
0.0002249888807073585
0.01132282563904683
6.092675984752483e-08
1.69267505818398e-06
1.116368160636783e-05
3.927652126483746e-05
0.0001000748803444243
0.0002098152318857941
0.0003840905089615788
0.000631989405278032
0.0009494511610287577
0.001317606803536674
0.00170925327761668
0.002098616297523132
0.002467464876848889
0.002806130951522681
0.003111920533771436
0.00338485628092263
0.003625833164148825
0.003836891927586891
0.004020779840866301
0.004180558363838976
0.004319339802028863
0.004440118245067
0.004545570596637281
0.004638029336482671
0.004718968748192035
0.00478965603843523
0.004851172644327848
0.004904435042548192
0.004950214296378143
0.004989153481242779
0.005021782748660441
0.005048532053353707
0.005069741703529849
0.005085670943991579
0.005096504787781887
0.005102359297051631
0.005103285490365392
0.005099272028560521
0.005090246808611543
0.005076077577472016
0.005056571668162463
0.005031474961974285
0.005000470196184886
0.004963174754708336
0.004919138096186956
0.004867838973786586
0.004808682572147043
0.00474100546233376
0.004664095382493252
0.004576725962101766
0.004477134184466667
0.004363025789338494
0.004231714251980922
0.004080245828798443
0.003905440582259534
0.003703868752597178
0.003471795380285205
0.003205172269804634
0.002899884307160145
0.00255306900850415
0.002176531919915185
0.001793315355945568
0.001420054504897833
0.001068610851294111
0.0007450336406123982
0.0004635632888622526
0.0002461708635254441
0.0001053628962895293
3.370682741604262e-05
7.574513782254275e-06
1.300655305976439e-06
2.272064645168228e-07
7.180634383032491e-08
5.129595626004399e-08
4.878835870766291e-08
4.850228230480226e-08
4.847085454374635e-08
4.846659989534548e-08
4.846499106099959e-08
4.846354549336465e-08
4.846202421559861e-08
4.846040398881227e-08
4.845868223508515e-08
4.845685893156969e-08
4.845493577979717e-08
4.84529139138143e-08
4.845079895361604e-08
4.84485932884494e-08
4.844628952395962e-08
4.844396103960576e-08
4.844160415198741e-08
4.843918811549595e-08
4.843671588966452e-08
4.8434199209982e-08
4.843166277606745e-08
4.842910115835567e-08
4.842670439281615e-08
4.842453883909866e-08
4.84226078155589e-08
4.842097121952546e-08
4.841971378045725e-08
4.841894534627828e-08
4.841916591031355e-08
4.853482744683228e-08
7.28163764893344e-08
3.854829605521421e-06
0.0003623512968632877
0.01500655879822598
5.732388645088656e-08
1.592580690341819e-06
1.050369440012167e-05
3.695788784449746e-05
9.419547851221618e-05
0.0001976345524984623
0.0003623217017275096
0.0005976007656077708
0.0009007421764064505
0.001254799318860684
0.001634116116909324
0.002013554394451399
0.002374774560691416
0.002707633177835284
0.003008841677591994
0.003278342487510892
0.003516794684220031
0.003726019809077267
0.003908590376074398
0.004067437364101037
0.004205578676521326
0.004325945385867992
0.004431184788469295
0.00452361656206951
0.004604738413509871
0.004675817893063474
0.004737941656467706
0.004792035602191208
0.004838884049674852
0.004879146995916859
0.004913375158674268
0.004942022793498609
0.004965458419844171
0.004983973649105504
0.004997790318254976
0.005007066120169611
0.005011898898777867
0.00501232975072373
0.005008345049117296
0.004999877481163625
0.004986806171294627
0.004968955946045803
0.004946095787799309
0.004917936524048135
0.004884127811182496
0.004844254504120105
0.004797832568238418
0.004744304811538637
0.004683036831846066
0.004613313661458733
0.004534347586422348
0.004444954466869902
0.004343314888923138
0.004227047155486742
0.004093296383325308
0.003938860012936274
0.003760196474304594
0.003553323593516661
0.003313665607332077
0.003036082886205045
0.002715757883734848
0.002352346717438062
0.001963068294639534
0.001572633845145286
0.001198855640772073
0.0008492459993438606
0.00053589917915675
0.0002851688390377353
0.0001192360475204215
3.582350562148575e-05
7.208246053196638e-06
1.079966829944585e-06
1.724249471188544e-07
5.89881959929652e-08
4.605048875458898e-08
4.468457571724748e-08
4.454971963364468e-08
4.453626061224817e-08
4.45338740737028e-08
4.453235163290103e-08
4.453080580984344e-08
4.45291640129663e-08
4.452742035704875e-08
4.452557433347331e-08
4.452362746978424e-08
4.452158072785381e-08
4.451943909717899e-08
4.451720549382298e-08
4.451487318005564e-08
4.451250590724855e-08
4.451010301853144e-08
4.450763971308129e-08
4.450512023235085e-08
4.450255699144475e-08
4.449997459279147e-08
4.449737188560924e-08
4.449491736182358e-08
4.449268694195353e-08
4.449070075396446e-08
4.448901895951475e-08
4.448772895666677e-08
4.448694669441329e-08
4.448758612659956e-08
4.47098921201695e-08
8.835084661161376e-08
6.482464116739295e-06
0.0005372988372102066
0.0189225168530795
5.464864550311253e-08
1.518257551226735e-06
1.001362138012933e-05
3.523593736208788e-05
8.98269876074541e-05
0.0001885734828575676
0.0003460914193015652
0.000571870479749033
0.0008641322364017507
0.001207367998667672
0.001577131081671284
0.001948821901881306
0.002304057087618999
0.00263234335226476
0.002929934091519243
0.003196710870780575
0.003433150221242591
0.003640902684892986
0.003822403099676853
0.003980477780264701
0.004118068132511517
0.004238052424773311
0.0043430513383696
0.004435371183045749
0.004516530034697267
0.004587793028930651
0.004650248024613797
0.004704825151134028
0.004752315640210752
0.004793388898889779
0.004828607489536579
0.004858439973990622
0.004883271738048904
0.00490341397720935
0.004919111040110139
0.004930546316538781
0.004937846835723484
0.004941086714985615
0.004940289572540855
0.004935429993208515
0.004926434112953421
0.004913179368135254
0.004895493438617709
0.004873152401372969
0.004845878104545349
0.004813334773948037
0.004775124879669825
0.004730784328354641
0.004679777121215663
0.004621489754921157
0.004555225891002996
0.004480202073081769
0.004395554774634271
0.004299782137929088
0.004190778209534509
0.004065842259007938
0.003921809269311619
0.00375509229137491
0.003561586565737412
0.003336473318427862
0.003074112397020413
0.002768586643353228
0.002415983733286521
0.002028191987437086
0.001630730949417365
0.001243866561787245
0.000878972456866859
0.000549362982882677
0.0002835401989627032
0.0001108319275739194
2.950907023067924e-05
5.050851293206119e-06
6.605696874793244e-07
1.079213079173061e-07
4.795694878872155e-08
4.199369401444235e-08
4.144432930821511e-08
4.139634176408545e-08
4.139128914981064e-08
4.138957110922892e-08
4.138800980781954e-08
4.138636564963373e-08
4.138462112201544e-08
4.138277480659047e-08
4.138082808213165e-08
4.137878190396539e-08
4.137664082362485e-08
4.137440812351707e-08
4.137207771981508e-08
4.13697061557039e-08
4.136729514610416e-08
4.136482416457663e-08
4.136229806999098e-08
4.135972980250135e-08
4.135714373982692e-08
4.135454156139292e-08
4.135207491821836e-08
4.134982525400489e-08
4.134782242384804e-08
4.134612838252582e-08
4.134483187324543e-08
4.134405048926455e-08
4.134539026053961e-08
4.17340006745756e-08
1.14139220315841e-07
1.022192543341144e-05
0.0007539588789372359
0.02310455539953835
5.257273372752543e-08
1.460584833467076e-06
9.633330810180758e-06
3.38995748687973e-05
8.643544798331755e-05
0.0001815324125224979
0.0003334572049883951
0.0005517855964372155
0.0008354526070751509
0.001170069317480347
0.001532164015997334
0.001897597444241227
0.00224797726709659
0.002572542185782352
0.002867180658495808
0.003131725763669057
0.003366507757906723
0.003573039368458064
0.003753643672060639
0.003911061066777141
0.004048169681330376
0.004167803254294481
0.004272559143579736
0.004364731211336621
0.004445855466954584
0.004517193854645992
0.0045798339028404
0.004634707754197532
0.004682610682043013
0.004724217982749509
0.004760099873889508
0.004790734329870704
0.004816517955173674
0.004837775066263421
0.004854765172937212
0.004867689043183907
0.00487669351645722
0.00488187520598402
0.00488328320527506
0.004880920889324809
0.004874746877924937
0.00486467520746222
0.004850574738704806
0.004832267811662966
0.004809528145289611
0.004782077970799433
0.004749584385156603
0.004711654920108477
0.004667832349586659
0.004617588817411553
0.00456031948072511
0.00449533607218623
0.004421861161023795
0.004339024337701955
0.00424554033484233
0.004139436203686469
0.004018124876832342
0.003878468380149977
0.00371683247848477
0.003528981923123685
0.003309845217979316
0.003053341202817964
0.002752872671027652
0.00240384958802642
0.002015880289741438
0.001613862374051314
0.001220544324183653
0.0008481871956827217
0.0005124000540789342
0.0002472289942264128
8.570413802147349e-05
1.895001993841388e-05
2.65445861211851e-06
3.149717685550914e-07
6.482501065704789e-08
4.107611806562364e-08
3.900068753720089e-08
3.883195989755077e-08
3.881809450614771e-08
3.881578951267016e-08
3.881419961105674e-08
3.881256284662464e-08
3.881082894795558e-08
3.880899448631968e-08
3.880706062803256e-08
3.880502835772721e-08
3.880290189760032e-08
3.880068476739258e-08
3.879837145908174e-08
3.879601291344285e-08
3.879361259747021e-08
3.879115279218056e-08
3.878863907245242e-08
3.878608474340216e-08
3.87835140332204e-08
3.87809306366864e-08
3.877847281780806e-08
3.877622573806893e-08
3.877422605328042e-08
3.877253683506853e-08
3.877124709802152e-08
3.877047315506732e-08
3.877289344950507e-08
3.9406562095566e-08
1.52830957794464e-07
1.538135370010797e-05
0.00101783722995801
0.02759482489301161
5.091328625143575e-08
1.414482242038925e-06
9.329328355091952e-06
3.28311982302377e-05
8.37232281144426e-05
0.0001758976129850059
0.0003233322168099096
0.0005356539932746472
0.0008123515551828273
0.001139932478987391
0.001495727722252858
0.00185599438452941
0.002202350441275975
0.00252382334287453
0.0028160037556886
0.003078685184286013
0.00331207792531668
0.003517581137012644
0.003697425255329244
0.003854279004525652
0.003990967211991492
0.004110285623862386
0.004214811175914877
0.004306826441482282
0.004387883325899656
0.00445924044672643
0.004521984351048797
0.004577048093534036
0.004625229471482337
0.004667207749182253
0.004703558470533367
0.004734766269680685
0.004761235765809941
0.004783300704588734
0.004801231532004157
0.004815241582148526
0.004825492043172737
0.004832095842631083
0.004835120568961547
0.004834590521842815
0.004830487961494667
0.004822753605952457
0.004811286405963918
0.004795942609386442
0.00477653411095179
0.004752826069427681
0.004724533763619867
0.004691318653403166
0.00465278361596944
0.004608467347667377
0.004557837970550705
0.00450028598183346
0.004435116872676348
0.004361544090160622
0.004278683658726597
0.004185291536715156
0.004079410758953001
0.003958454255365096
0.003819241320739811
0.003658033773770609
0.003470399901963464
0.00325094373426223
0.002993138579976666
0.00268997789252767
0.002336879105975865
0.001944625616627718
0.001539057418693077
0.001143795229092836
0.0007697100693875668
0.0004367475635868272
0.0001882044336341414
5.418436081507105e-05
9.340929971511573e-06
1.070616269527375e-06
1.3114078826921e-07
4.452210916352294e-08
3.727101778344137e-08
3.671036780795491e-08
3.666915503328923e-08
3.666509942684189e-08
3.666341846781042e-08
3.666179136610916e-08
3.666007408195057e-08
3.665825792511554e-08
3.665634369458158e-08
3.665433240515369e-08
3.665222802791575e-08
3.66500342352933e-08
3.664774600802307e-08
3.664540981135042e-08
3.66430303620343e-08
3.664059216682735e-08
3.663810136053256e-08
3.663557145374125e-08
3.663302645794545e-08
3.663047154607096e-08
3.662803412415519e-08
3.662580169599088e-08
3.66238157956276e-08
3.662214007216471e-08
3.662086489652155e-08
3.662009947667131e-08
3.662408731429211e-08
3.760277937677498e-08
2.077130945004224e-07
2.233463959642088e-05
0.001334828109585818
0.03241954467582322
4.955116799252155e-08
1.376639997742535e-06
9.07979191818521e-06
3.195417245061696e-05
8.149624925827528e-05
0.0001712682435835599
0.0003150044203880701
0.0005223617671006184
0.0007932715731453226
0.001114977584510806
0.001465485227794398
0.001821396722724197
0.002164351083454616
0.002483204747640531
0.002773299685150804
0.003034396571467024
0.003266605202382771
0.003471229172153511
0.003650420583374836
0.003806787251587257
0.003943108382043052
0.004062146889773671
0.004166461683139723
0.004258325127598617
0.004339302994039592
0.004410650653317996
0.004473453368621278
0.004528644478431041
0.00457702338242352
0.004619272113234619
0.00465597006650501
0.004687606779791098
0.004714592834339249
0.004737269034635279
0.004755914046939703
0.004770750676057527
0.004781950943787007
0.004789640110684907
0.004793899759217886
0.00479477003309822
0.004792251105503183
0.004786303928243755
0.004776850294751275
0.004763772231774362
0.004746910717887212
0.00472606371127367
0.004700983455218037
0.004671373018279809
0.004636882019363055
0.004597101489748326
0.004551557841815113
0.004499705960645414
0.004440921533179249
0.00437449292216158
0.004299613255790554
0.00421537408256109
0.004120453185234535
0.004012819774947845
0.003889798351813884
0.0037481010349923
0.003583822468046313
0.003392252621709766
0.003167570311604298
0.00290274568549651
0.002590536656941505
0.002227181452787742
0.001827529566966334
0.001419523252462412
0.001025531551871372
0.0006550126690455606
0.0003360206211655433
0.0001219017760203591
2.703748961561457e-05
3.50245793737609e-06
3.521357256015377e-07
6.03221186342638e-08
3.67197740252124e-08
3.496716307288418e-08
3.484598563805248e-08
3.483700314646329e-08
3.483505775101879e-08
3.483343443028822e-08
3.483173656627209e-08
3.48299420563579e-08
3.4828050953737e-08
3.482606428398158e-08
3.482398582566146e-08
3.4821819352994e-08
3.481956026493274e-08
3.481725138040605e-08
3.481489838218305e-08
3.481248760700675e-08
3.481002551356327e-08
3.480752569009857e-08
3.480501196159261e-08
3.480249058406174e-08
3.480007987959809e-08
3.479786888083984e-08
3.479590286908968e-08
3.47942452410816e-08
3.479298984991346e-08
3.479223172632475e-08
3.479840250184107e-08
3.624863058429381e-08
2.832804527411691e-07
3.156684081471016e-05
0.001711719667973282
0.03759007603791202
4.840584877074432e-08
1.344820829499255e-06
8.869970243111786e-06
3.121668501186668e-05
7.962322121302475e-05
0.0001673727714064688
0.0003079902001060631
0.0005111492055812149
0.0007771447111224383
0.001093839274510042
0.001439816408314609
0.001791982897091725
0.002132004841729824
0.002448596825365165
0.002736888607218206
0.002996613142408665
0.00322779430966708
0.003431653690374391
0.003610275897375844
0.003766216075742845
0.003902213787246118
0.004021003232394784
0.004125127277627467
0.004216849069270598
0.004297746320117394
0.004369071347701129
0.004431908034301039
0.004487189662614703
0.00453571668066964
0.004578173135877737
0.004615141327559759
0.004647114551807332
0.004674508001995079
0.00469766797312905
0.004716879547204784
0.004732372936667217
0.004744328648623566
0.004752881611685968
0.00475812438457628
0.00476010954304606
0.004758851320161545
0.004754326554905557
0.004746474985257015
0.004735198904237324
0.004720362180617071
0.004701788629901815
0.004679259705925071
0.004652511469284293
0.004621230777089706
0.004585050631347315
0.004543544625136226
0.004496220444712876
0.004442512436516589
0.004381773357685836
0.004313265646432755
0.004236152966054866
0.004149493567235649
0.004051778331883633
0.003940817825734296
0.003813763967104141
0.003667148001896535
0.003496805508342428
0.003297615678948683
0.003063183565235921
0.002785971371836437
0.002459037710297342
0.002081130803572839
0.00167351418480473
0.001266956182548732
0.0008748828252432053
0.0005130268938670662
0.000225654805110448
6.380018955955538e-05
1.017320203911881e-05
1.02016150098584e-06
1.108366873354007e-07
3.879817362515169e-08
3.362547197870991e-08
3.328250372144019e-08
3.326030340065989e-08
3.325764965679913e-08
3.325600962830743e-08
3.325433168513321e-08
3.325256032038471e-08
3.325069394068232e-08
3.324873353687467e-08
3.324668273574272e-08
3.324454537930102e-08
3.324231722266555e-08
3.324003805909343e-08
3.323771428378892e-08
3.323533373412076e-08
3.323290315863395e-08
3.323043616019365e-08
3.32279563285587e-08
3.322547074915684e-08
3.322309007378627e-08
3.322090422647849e-08
3.321896138686181e-08
3.321732351447892e-08
3.321609194591533e-08
3.321533912672116e-08
3.322446577601679e-08
3.530692234636941e-08
3.857092426319285e-07
4.369425566174399e-05
0.002156142174706929
0.04310938034770209
4.742828602415274e-08
1.317662247673367e-06
8.690879808453111e-06
3.058718068988924e-05
7.802417282798768e-05
0.0001640457415373201
0.0003019946715169688
0.0005015526042066359
0.0007633183335710105
0.001075682162737476
0.00141772896920664
0.001766636262271635
0.002104100490246447
0.002418716817945464
0.00270543171508421
0.002963954315714475
0.003194234100644199
0.003397421397127675
0.003575541974587072
0.003731104897675475
0.003866814886921226
0.003985380755790553
0.004089330998937496
0.004180920401272189
0.004261737289078714
0.004333031127990736
0.004395884400107158
0.004451230130310507
0.004499869452965945
0.004542487920757925
0.004579670084628566
0.004611912203821316
0.004639633139809276
0.004663183576241695
0.004682853738390924
0.004698879787145509
0.004711449049341328
0.004720704226344016
0.004726746700764932
0.00472963903921618
0.004729406768039836
0.004726039479333141
0.00471949130623476
0.004709680789121149
0.004696490137778094
0.004679763878481596
0.004659306859089414
0.004634881569752215
0.004606204722192214
0.004572943017878625
0.004534708027371674
0.004491050104548198
0.00444145127948645
0.004385317129409222
0.004321967749454716
0.004250628191964696
0.004170419223535352
0.004080347805602913
0.003978642167904708
0.003862886705147292
0.003729985727235333
0.003576200566807509
0.003396989189748869
0.00318666950606493
0.002938139887839811
0.002643388348826001
0.002296208710495861
0.00190361190713389
0.001491725950180365
0.001088273013459185
0.000702163351960803
0.0003605048290047402
0.0001262183533469238
2.545607829905622e-05
2.860267673613032e-06
2.547851278186272e-07
4.736574477295078e-08
3.286973459454142e-08
3.193969405937638e-08
3.188354773384562e-08
3.18791071874467e-08
3.187739949701143e-08
3.187573977668907e-08
3.187399201292699e-08
3.187215089801248e-08
3.187021729646255e-08
3.18681947108089e-08
3.186608702937901e-08
3.186389031178867e-08
3.186164180020773e-08
3.185934846605957e-08
3.185699941373351e-08
3.185460154403534e-08
3.185216841509036e-08
3.184972341158184e-08
3.184727425210969e-08
3.184492494494335e-08
3.184276590862684e-08
3.184084802885279e-08
3.183922997824768e-08
3.183802569518931e-08
3.183727617259082e-08
3.185032239514411e-08
3.476912787997677e-08
5.233035156478316e-07
5.948903057554994e-05
0.002676435756665479
0.04897640751088461
4.657605214289085e-08
1.29398553540999e-06
8.534748465831856e-06
3.003835284374948e-05
7.662984694064991e-05
0.0001611435980081183
0.0002967610462613243
0.0004931657914932139
0.0007512163010279545
0.001059762357252348
0.001398332036874401
0.001744347619781384
0.002079538428619815
0.002392402760341072
0.002677738611413669
0.002935193874119817
0.003164669725156032
0.003367256537035286
0.003544928241416959
0.003700152792945975
0.003835603664792764
0.003953966807686563
0.004057757615894358
0.004149223195404372
0.004229961235016454
0.004301218554763252
0.004364076266386915
0.004419467021821387
0.004468192401282211
0.004510939108353789
0.004548293482857431
0.004580754177152237
0.004608743041067126
0.004632614352134863
0.004652662561255363
0.004669128726946145
0.004682205799143875
0.004692042894446298
0.004698748683301757
0.004702393988240241
0.004703013671792823
0.0047006078736474
0.004695142638756359
0.004686549961334147
0.004674727253642933
0.004659536232848471
0.004640801203808629
0.004618306700342851
0.004591794432567245
0.004560959474052281
0.004525445611638664
0.004484839776357928
0.004438665482862162
0.004386375239874232
0.004327341979132778
0.004260849729139668
0.004186084115579963
0.00410212396090369
0.004007697581549527
0.003900791520733209
0.003778719405798987
0.003638116790785632
0.003474892877158946
0.003283972295728231
0.003058918292378053
0.002791888802964644
0.002475041776272493
0.002105208157826402
0.001699668866565729
0.00128862151114145