/*--------------------------------*- C++ -*----------------------------------*\
| =========                 |                                                 |
| \\      /  F ield         | OpenFOAM: The Open Source CFD Toolbox           |
|  \\    /   O peration     | Version:  v1812                                 |
|   \\  /    A nd           | Web:      www.OpenFOAM.com                      |
|    \\/     M anipulation  |                                                 |
\*---------------------------------------------------------------------------*/
FoamFile
{
    version     2.0;
    format      ascii;
    class       volScalarField;
    location    "5702";
    object      nut;
}
// * * * * * * * * * * * * * * * * * * * * * * * * * * * * * * * * * * * * * //

dimensions      [0 2 -1 0 0 0 0];


internalField   nonuniform List<scalar> 
44064
(
9.774145718623027e-14
1.480483624576632e-11
2.795015954565963e-10
2.033331937583564e-09
8.827846847881458e-09
2.757008933481794e-08
6.788478394560144e-08
1.390860405850656e-07
2.46628926500992e-07
3.910074116349028e-07
5.69180225716913e-07
7.57750145199112e-07
9.736928992025511e-07
1.219881342585031e-06
1.497520161409079e-06
1.807608806846625e-06
2.151013916555243e-06
2.526878475179343e-06
2.936781711140718e-06
3.381391014873672e-06
3.861094449708928e-06
4.376140991786043e-06
4.926654906313624e-06
5.512634313133686e-06
6.133968993605157e-06
6.790405259323979e-06
7.481503029410439e-06
8.206594775572373e-06
8.964751136742799e-06
9.754747869704049e-06
1.05750265188261e-05
1.142363482765579e-05
1.229812394254063e-05
1.319537926183657e-05
1.411140355165339e-05
1.504122424757045e-05
1.597946169510556e-05
1.692271118908966e-05
1.787544073801755e-05
1.886027865999135e-05
1.992814243673585e-05
2.114713136433229e-05
2.250734038886271e-05
2.362791732027367e-05
2.405006223708955e-05
2.416712337836354e-05
2.395110659860631e-05
2.339623969111146e-05
2.251619510744212e-05
2.134183172125879e-05
1.991498836964923e-05
1.828097685725783e-05
1.648371346169392e-05
1.456506897999561e-05
1.256679561020317e-05
1.053290776539102e-05
8.511685059524193e-06
6.558663083649925e-06
4.742325014670587e-06
3.149127823055445e-06
1.878080712608186e-06
9.941277930495549e-07
4.714537462224167e-07
2.062314299861811e-07
8.716138096131036e-08
3.848923278810358e-08
2.006233912597079e-08
1.355755297789413e-08
1.141362085475289e-08
1.075469379929132e-08
1.05662851761538e-08
1.051626964375419e-08
1.050396675516054e-08
1.05011707095829e-08
1.050058455930235e-08
1.05004695303149e-08
1.050044673819517e-08
1.050044036973871e-08
1.050043647051286e-08
1.050043275180419e-08
1.050042889279664e-08
1.050042486106464e-08
1.05004206745021e-08
1.050041636189779e-08
1.050041195313148e-08
1.050040747428726e-08
1.050040305924188e-08
1.050039821111078e-08
1.050039387547974e-08
1.050039010806415e-08
1.050038582451808e-08
1.050038175491689e-08
1.050037796654277e-08
1.050037425235573e-08
1.050037145078762e-08
1.050036799812872e-08
1.050036484331803e-08
1.050036321201017e-08
1.050036173515751e-08
1.0500360359982e-08
1.05003593781455e-08
1.050035884336375e-08
1.050035899353039e-08
1.050045377489357e-08
1.053729893599052e-08
2.055258420457041e-08
2.005706134135445e-06
5.538608818493426e-05
7.817146764318065e-14
1.184607143284733e-11
2.23984613756083e-10
1.637592562037409e-09
7.192076628071183e-09
2.292168125144142e-08
5.810088327708958e-08
1.232884082885851e-07
2.268667512336247e-07
3.727388032814491e-07
5.608649685100197e-07
7.893478244062936e-07
1.049768905714894e-06
1.337650591762895e-06
1.665682015526506e-06
2.038270455063672e-06
2.458253116134509e-06
2.92790338941224e-06
3.449536286057877e-06
4.025260070680724e-06
4.657002623584883e-06
5.346512729945583e-06
6.095329626490431e-06
6.904739382049718e-06
7.775728087077939e-06
8.708932164603272e-06
9.704582764133463e-06
1.076244444706425e-05
1.188174745461099e-05
1.306111415329648e-05
1.429848083439762e-05
1.5591017432827e-05
1.693505021508471e-05
1.832599588591516e-05
1.975831788159716e-05
2.122551038176431e-05
2.272008798253808e-05
2.423348329564618e-05
2.575560160381518e-05
2.727355577755521e-05
2.876894658159661e-05
3.021348281866155e-05
3.156503336228062e-05
3.277141917082655e-05
3.379587821918415e-05
3.465770465906747e-05
3.538666010442611e-05
3.596287755840606e-05
3.634840466536208e-05
3.653987176384543e-05
3.664884628410401e-05
3.692339900276912e-05
3.758444754688058e-05
3.821047345601113e-05
3.626443581719251e-05
3.319148617374009e-05
2.964894145942413e-05
2.574145297759408e-05
2.158583777815151e-05
1.733060949110744e-05
1.315034606485228e-05
9.225943759317925e-06
5.764804113656107e-06
3.026557597547505e-06
1.260680287086485e-06
4.226987396247833e-07
1.269718572530381e-07
4.049746697226283e-08
1.767730576944765e-08
1.204458739664238e-08
1.072845872024034e-08
1.043620542595081e-08
1.037449592448825e-08
1.036211238838161e-08
1.035975134912121e-08
1.035931895524645e-08
1.035923577790458e-08
1.035921100965761e-08
1.035919456309793e-08
1.035917839170984e-08
1.035916128806018e-08
1.035914313891138e-08
1.035912400056682e-08
1.035910395833974e-08
1.035908311260066e-08
1.035906153637296e-08
1.035903955993882e-08
1.035901670327973e-08
1.035899154893283e-08
1.035896686431502e-08
1.035894449564085e-08
1.035892325143129e-08
1.035890210446526e-08
1.035888066792367e-08
1.035886015450974e-08
1.035883877987405e-08
1.035881976186958e-08
1.035880429539967e-08
1.035879045793105e-08
1.035877895407146e-08
1.03587704554187e-08
1.035876549071259e-08
1.035876640690749e-08
1.035961468235219e-08
1.061583433673298e-08
6.446993989314054e-08
7.640038875747198e-06
0.0001142880501201645
6.527490538327585e-14
9.892187887564422e-12
1.871100651302511e-10
1.369940783165777e-09
6.038092134716772e-09
1.937590754951196e-08
4.964171253627757e-08
1.06835593578458e-07
1.997671464400173e-07
3.335408805220018e-07
5.093935509082945e-07
7.263753052385753e-07
9.830645239717424e-07
1.264781448443142e-06
1.585439202013562e-06
1.952155100154737e-06
2.369195397510073e-06
2.840333960562233e-06
3.369398433481059e-06
3.96015948342271e-06
4.615246243247692e-06
5.332967805099043e-06
6.09899439847956e-06
6.928365923694862e-06
7.831134212798161e-06
8.811631162808196e-06
9.874217581006107e-06
1.102321550436511e-05
1.226282378281908e-05
1.359701702049876e-05
1.502942424149416e-05
1.65631831309291e-05
1.820076471848283e-05
1.994376179778365e-05
2.179263194694519e-05
2.374638229974692e-05
2.580217759587298e-05
2.795484464249312e-05
3.019623397297085e-05
3.251438161063572e-05
3.486507076842574e-05
3.709556986559471e-05
3.923202346619336e-05
4.12828611035254e-05
4.32390769802514e-05
4.507531006999592e-05
4.674879657363704e-05
4.819666460714154e-05
4.933844583554342e-05
5.00973822654457e-05
5.046207658818107e-05
5.049702700469002e-05
5.021657797628536e-05
4.95360838406503e-05
4.846223587640258e-05
4.730017728870145e-05
4.646155671548959e-05
4.586279760155782e-05
4.353121298607557e-05
3.827278471338216e-05
3.244026910534901e-05
2.625284721550152e-05
1.999122665837376e-05
1.400552296397687e-05
8.67078340005975e-06
4.396672748811461e-06
1.644134281452698e-06
4.482060288018792e-07
1.055505766326297e-07
2.886458856399748e-08
1.362893426946883e-08
1.082454580989551e-08
1.034020265846813e-08
1.026115053471484e-08
1.024886779337761e-08
1.02470305054321e-08
1.024675421042237e-08
1.024670059759776e-08
1.024667643052498e-08
1.024665496009262e-08
1.024663264133354e-08
1.024660905965125e-08
1.024658421553734e-08
1.024655816796035e-08
1.024653100980689e-08
1.02465027473948e-08
1.024647376594367e-08
1.024644366604852e-08
1.024641074435239e-08
1.024637821424083e-08
1.024634796076974e-08
1.024631840876058e-08
1.024628856322124e-08
1.024625804749867e-08
1.024622807441853e-08
1.024619728621645e-08
1.024616879320876e-08
1.02461439940466e-08
1.024612132706059e-08
1.024610208278909e-08
1.024608735652178e-08
1.024607818834095e-08
1.024608332973544e-08
1.024933041510679e-08
1.110305504434643e-08
1.712275558608663e-07
1.746437136117857e-05
0.000183402505938234
5.791842021714671e-14
8.77755752627244e-12
1.660606726637852e-10
1.216780747017557e-09
5.373701400355323e-09
1.731052601262196e-08
4.462292042322196e-08
9.682959249009495e-08
1.827944279205128e-07
3.081860519200003e-07
4.74923104785162e-07
6.825406354786318e-07
9.298779025216498e-07
1.206163721379624e-06
1.517628074548004e-06
1.874172034808915e-06
2.280846327665315e-06
2.741922503576537e-06
3.261663605450583e-06
3.844320192596671e-06
4.49266866698026e-06
5.203756709466335e-06
5.9590387349007e-06
6.785794589278909e-06
7.689005062942702e-06
8.673893815441506e-06
9.745890530131495e-06
1.09105866105404e-05
1.217367878375739e-05
1.354089714220614e-05
1.501791445862389e-05
1.661023276785096e-05
1.832304273926124e-05
2.016105078390234e-05
2.212826819560668e-05
2.422775595284365e-05
2.646131819780012e-05
2.882913703869998e-05
3.132934155523767e-05
3.395750545799636e-05
3.67060721766043e-05
3.956370316544937e-05
4.251448408600288e-05
4.553690539672689e-05
4.86025766070668e-05
5.167453773718423e-05
5.439544715665647e-05
5.681318371739781e-05
5.895727686678189e-05
6.082440130174268e-05
6.237887772182246e-05
6.355129487596886e-05
6.423463631889414e-05
6.428696620174333e-05
6.356626091957886e-05
6.204151022959879e-05
5.984119313673107e-05
5.720891589591721e-05
5.465431723937019e-05
5.260045972336599e-05
5.067655025794754e-05
4.625893524733146e-05
3.873865447164894e-05
3.067715994507337e-05
2.253884624208612e-05
1.490163317491978e-05
8.36935850738373e-06
3.550292389501759e-06
1.001066598496145e-06
2.063117668622979e-07
4.296434197130916e-08
1.516426008813633e-08
1.086602843529346e-08
1.024933383927838e-08
1.016663678920472e-08
1.015619244627408e-08
1.015492559819012e-08
1.015476072899416e-08
1.015472105756356e-08
1.01546938450051e-08
1.015466652880348e-08
1.01546377977409e-08
1.015460756862945e-08
1.015457588914745e-08
1.015454287613743e-08
1.015450850254182e-08
1.01544731708226e-08
1.015443663039651e-08
1.015439706578463e-08
1.015435754317465e-08
1.015432017860997e-08
1.015428335920957e-08
1.015424620795494e-08
1.015420840775309e-08
1.015417107086281e-08
1.015413314017358e-08
1.015409738215159e-08
1.015406531248391e-08
1.015403639901068e-08
1.015401210335315e-08
1.015399346225271e-08
1.015398196928086e-08
1.01540064742878e-08
1.016380417770445e-08
1.243465503138505e-08
3.950357495339697e-07
3.117109368821231e-05
0.000262177426915941
5.33431759668026e-14
8.084304629343463e-12
1.529647373962214e-10
1.121377611060066e-09
4.958611196538149e-09
1.601272214348111e-08
4.144089862101226e-08
9.041019520288528e-08
1.717594379308374e-07
2.914816546749147e-07
4.519345327002814e-07
6.52979846788577e-07
8.936256232913533e-07
1.165555660452918e-06
1.470015306373991e-06
1.818651701155654e-06
2.216912958098937e-06
2.669260330274399e-06
3.180098778452974e-06
3.753907492751926e-06
4.39378626577144e-06
5.097236619297326e-06
5.844838884989383e-06
6.664454933683023e-06
7.561434646271373e-06
8.541401750857022e-06
9.610284994502933e-06
1.077429221154812e-05
1.203987612448266e-05
1.34136875991518e-05
1.490251367056888e-05
1.651319658608264e-05
1.825252962539956e-05
2.012712484451896e-05
2.214324719112292e-05
2.430660866269218e-05
2.662211534792857e-05
2.909355933127344e-05
3.172324658526327e-05
3.451155118142005e-05
3.7456385470702e-05
4.055257535486243e-05
4.379112950257167e-05
4.715839246123972e-05
5.063507597223329e-05
5.419517323022354e-05
5.780478493799245e-05
6.142067038092839e-05
6.498819666608924e-05
6.811475183432515e-05
7.073310206503008e-05
7.289654714062721e-05
7.460571326835335e-05
7.580556165990477e-05
7.639020019394084e-05
7.621160655916854e-05
7.509090527334315e-05
7.285125882691645e-05
6.943517997740826e-05
6.522087271550722e-05
6.109511963309394e-05
5.771800847353958e-05
5.463963429293573e-05
4.910225493239858e-05
3.964409023931255e-05
2.969838704698211e-05
2.004324689005028e-05
1.158076017217595e-05
5.113536710158725e-06
1.438789737178994e-06
2.662963128747686e-07
4.714274070433798e-08
1.492610743357106e-08
1.066518034522679e-08
1.014423779200595e-08
1.008497575983103e-08
1.007865478700964e-08
1.007799930086283e-08
1.007791204999769e-08
1.007787735418592e-08
1.007784586181624e-08
1.007781304650401e-08
1.007777854175442e-08
1.00777423598453e-08
1.00777046387307e-08
1.007766533502606e-08
1.007762483005784e-08
1.007758299563846e-08
1.007753796688481e-08
1.007749267312872e-08
1.007744940060919e-08
1.007740650756847e-08
1.007736321079947e-08
1.00773192832179e-08
1.007727575772137e-08
1.007723179208906e-08
1.007718989841266e-08
1.007715180081527e-08
1.007711776078186e-08
1.007708922676923e-08
1.007706734093993e-08
1.007705411111691e-08
1.007712700149924e-08
1.010107304860173e-08
1.515344292408684e-08
7.967467419310811e-07
4.781670719279954e-05
0.0003477767047246548
5.018877243798522e-14
7.606329751031481e-12
1.439337751128841e-10
1.055538688633347e-09
4.671617260764847e-09
1.511219792054836e-08
3.922049109128029e-08
8.58974205595995e-08
1.639373048330367e-07
2.795453612287313e-07
4.35393072562575e-07
6.315869464189395e-07
8.672640067063942e-07
1.135908286581259e-06
1.435092129006958e-06
1.777736342832483e-06
2.169547155161391e-06
2.615085339910336e-06
3.118812681230486e-06
3.685324148920423e-06
4.317924984352688e-06
5.014536052308189e-06
5.75654299965959e-06
6.56940377748027e-06
7.459902917898388e-06
8.433871392216785e-06
9.49750314277357e-06
1.065734136751434e-05
1.192025925959322e-05
1.329343076593484e-05
1.478428915570517e-05
1.640047001838783e-05
1.814973483789217e-05
2.003987067100437e-05
2.207856073011869e-05
2.427321983386494e-05
2.663078775602065e-05
2.915747248257466e-05
3.185843429695656e-05
3.473740049204304e-05
3.779619940314144e-05
4.103420144914092e-05
4.444765408705937e-05
4.802889720374409e-05
5.176544575355602e-05
5.563892774014476e-05
5.962386829049997e-05
6.368631467208689e-05
6.778230970450035e-05
7.185625706089678e-05
7.583891042520815e-05
7.938119142075436e-05
8.222649313434972e-05
8.445115406484402e-05
8.606383654095708e-05
8.699523622517792e-05
8.710218048254943e-05
8.618387551861499e-05
8.401806084157034e-05
8.04394848098365e-05
7.5501069562775e-05
6.980876156399411e-05
6.459464232439003e-05
6.046004143875832e-05
5.61890540722669e-05
4.630965656997507e-05
3.476255660109879e-05
2.335053150892007e-05
1.330496518220542e-05
5.69975998116656e-06
1.477431493562715e-06
2.394593888565485e-07
3.869958662993816e-08
1.325859675404552e-08
1.035237738226398e-08
1.004567504314769e-08
1.001560552932503e-08
1.001283359974229e-08
1.001256852244754e-08
1.001251754077874e-08
1.001248197397352e-08
1.001244575908313e-08
1.001240774185656e-08
1.001236787331957e-08
1.001232630569195e-08
1.001228299675991e-08
1.001223829832789e-08
1.001219217741043e-08
1.001214274972785e-08
1.001209282320411e-08
1.001204475843735e-08
1.001199696793437e-08
1.00119487751581e-08
1.001189997809574e-08
1.001185155193232e-08
1.001180279663153e-08
1.00117560052628e-08
1.001171310895068e-08
1.001167488022891e-08
1.001164288343547e-08
1.001161835527811e-08
1.001160384397663e-08
1.001177445468408e-08
1.006166058827919e-08
1.988048991773469e-08
1.44110812019437e-06
6.668773454953693e-05
0.000439212299714544
4.784653242808104e-14
7.251412909770154e-12
1.372269746570834e-10
1.006617859807385e-09
4.458085648968896e-09
1.444046067678969e-08
3.755748251077071e-08
8.2499339616963e-08
1.580117278091533e-07
2.704504732552738e-07
4.2272671568114e-07
6.151414905529621e-07
8.469374146949589e-07
1.113016720052082e-06
1.408062788259854e-06
1.745995601114048e-06
2.132709636097123e-06
2.572825224188753e-06
3.070852181027963e-06
3.631442021474576e-06
4.258056052698595e-06
4.948982950382785e-06
5.686422234455757e-06
6.493475741304114e-06
7.378224065896132e-06
8.346620750094115e-06
9.405019347108634e-06
1.056016794881846e-05
1.181920011550559e-05
1.318961774390654e-05
1.467926407333007e-05
1.629628380407152e-05
1.804906686833864e-05
1.994617180551878e-05
2.199622398391494e-05
2.420778307713069e-05
2.658917324839165e-05
2.914826841958517e-05
3.189222380821315e-05
3.482714362536868e-05
3.795767346760676e-05
4.12865045564998e-05
4.481377566942201e-05
4.853635747992322e-05
5.244700327422575e-05
5.653334989878376e-05
6.077675371010568e-05
6.515094881271069e-05
6.962051985548246e-05
7.413919029259302e-05
7.864794035848275e-05
8.307300451380046e-05
8.732349188968203e-05
9.079677174107162e-05
9.346784753127627e-05
9.539125719728232e-05
9.653156715155096e-05
9.675794426449611e-05
9.585811716407987e-05
9.357547096197397e-05
8.968917944585772e-05
8.417047879094048e-05
7.744611841315128e-05
7.083622545705188e-05
6.542344117078968e-05
6.024660779194299e-05
5.046639033037835e-05
3.739818068342809e-05
2.446742895930335e-05
1.329050959787971e-05
5.178852089423123e-06
1.132354697943829e-06
1.574856312028643e-07
2.593301925668911e-08
1.153328301797695e-08
1.010013837676061e-08
9.968320153921368e-09
9.957053315341482e-09
9.956129324084103e-09
9.956028335624818e-09
9.955986776294038e-09
9.955947439578949e-09
9.95590635522383e-09
9.955863286803613e-09
9.955818387821036e-09
9.95577162874719e-09
9.955723335548817e-09
9.955673549665018e-09
9.95562038727759e-09
9.955566553226673e-09
9.955514498756361e-09
9.955462647589336e-09
9.955410375991881e-09
9.955357539192026e-09
9.955305078340876e-09
9.955252391248479e-09
9.955201581146235e-09
9.955154765829851e-09
9.955113094339563e-09
9.955078265147263e-09
9.955051609574417e-09
9.955036137691454e-09
9.955383231574417e-09
1.004879726972078e-08
2.747784469155254e-08
2.41233348862495e-06
8.775353312977601e-05
0.0005371375110061166
4.602901922186989e-14
6.976003649876481e-12
1.320220569122107e-10
9.686364406517194e-10
4.292130560255648e-09
1.391734284491508e-08
3.625828147144694e-08
7.983333881773066e-08
1.533402752415247e-07
2.63246605340785e-07
4.12653004044281e-07
6.020195100038031e-07
8.306772299623073e-07
1.094676870097831e-06
1.386365453170243e-06
1.720470389195437e-06
2.103030269614287e-06
2.538704452017061e-06
3.032041533301685e-06
3.587723964920015e-06
4.20933804198285e-06
4.895493476320355e-06
5.629151744315189e-06
6.43123875020525e-06
7.310987599661745e-06
8.274431277140859e-06
9.328028386798835e-06
1.047866352519421e-05
1.1733645498256e-05
1.31006989042691e-05
1.458794761817599e-05
1.620388744776415e-05
1.795734484277032e-05
1.985741799039281e-05
2.191339595831998e-05
2.413465074323302e-05
2.653049614707015e-05
2.911000632731243e-05
3.18817856458377e-05
3.485368008085763e-05
3.803241897681866e-05
4.142317431594007e-05
4.502902305935452e-05
4.885029650115794e-05
5.288379913898119e-05
5.712187848250045e-05
6.155132677837441e-05
6.615209623467263e-05
7.089581156703504e-05
7.5744068409007e-05
8.064651456270736e-05
8.553872508793329e-05
9.033990407699093e-05
9.495050092916573e-05
9.893573750146832e-05
0.0001019482531707312
0.0001040702935968192
0.0001052863072265137
0.0001054679111831711
0.0001043860014373698
0.000101753592083382
9.732102410051794e-05
9.10561592006626e-05
8.342194002023215e-05
7.5719783447608e-05
6.922181651483423e-05
6.314687428641739e-05
5.214563691906477e-05
3.754743709732206e-05
2.337447966475632e-05
1.165512828877964e-05
3.819779340220009e-06
6.509919861717019e-07
8.004589782873599e-08
1.653628445049377e-08
1.048186558176568e-08
9.952786296432734e-09
9.910033879206408e-09
9.906803857779356e-09
9.906544824280075e-09
9.906491066382707e-09
9.906448568594512e-09
9.906404739162344e-09
9.906358831483779e-09
9.906310977014046e-09
9.90626116226094e-09
9.906209693074437e-09
9.906156669766563e-09
9.906100218351947e-09
9.906042955800198e-09
9.905987412998234e-09
9.905932031494542e-09
9.905876216600355e-09
9.905819868950689e-09
9.905763924154912e-09
9.905707848442637e-09
9.905653566872265e-09
9.905603381864755e-09
9.905558777023817e-09
9.905521578501964e-09
9.90549321376655e-09
9.905476875116389e-09
9.90611575367078e-09
1.006783986976602e-08
3.903588723014695e-08
3.809230901622097e-06
0.000111271057474471
0.0006425027285818791
4.457613052580481e-14
6.755843930294958e-12
1.278609382982323e-10
9.382619240402885e-10
4.159303268744017e-09
1.349797881307853e-08
3.521410488821067e-08
7.768331949856461e-08
1.495581917322827e-07
2.573917661565736e-07
4.04438337660536e-07
5.912904278870645e-07
8.173544617656136e-07
1.07963155440263e-06
1.368537960286673e-06
1.699468284165567e-06
2.078575367601668e-06
2.510546554484942e-06
2.999956802886811e-06
3.551510666631983e-06
4.168896849585816e-06
4.851006352995388e-06
5.581499795304534e-06
6.379327349333093e-06
7.25474552153685e-06
8.213842106403156e-06
9.263149281743611e-06
1.04096483295694e-05
1.166077331269143e-05
1.302440920495686e-05
1.450888328645214e-05
1.612294731506237e-05
1.787574763722857e-05
1.977677989634498e-05
2.183582436477526e-05
2.406285716273044e-05
2.646793172863515e-05
2.906102385683229e-05
3.18518324100147e-05
3.484952644300164e-05
3.806242793827182e-05
4.149761766371973e-05
4.516044985504216e-05
4.905395954643756e-05
5.317814452152032e-05
5.752910217776358e-05
6.209800031302702e-05
6.686986028565674e-05
7.182213165237766e-05
7.692303996652745e-05
8.212969497143134e-05
8.738595652706978e-05
9.262007270860459e-05
9.774213256911599e-05
0.0001026414204397187
0.000106909515763547
0.0001100787470343031
0.0001122378882137867
0.0001133681022299431
0.0001133244362444884
0.000111850608716783
0.000108632770089525
0.0001034163331131055
9.621464418396733e-05
8.760104478774352e-05
7.902004954986431e-05
7.180046809494858e-05
6.489660132964607e-05
5.134516893734524e-05
3.525656348830668e-05
2.03035572799275e-05
8.815975909459628e-06
2.191581454521506e-06
2.831996938710364e-07
3.521994234639859e-08
1.197334564897386e-08
1.00246266035031e-08
9.874202673028413e-09
9.863443163919271e-09
9.862696219171232e-09
9.862611250084286e-09
9.862564808449545e-09
9.862518447054092e-09
9.862469979071318e-09
9.862419464040742e-09
9.862366903095668e-09
9.862312587355378e-09
9.862256664859669e-09
9.862197275349981e-09
9.862136960522992e-09
9.86207831191684e-09
9.86201979071848e-09
9.861960833435941e-09
9.86190137892773e-09
9.861842362449686e-09
9.861783302235923e-09
9.861725965662601e-09
9.861672819613373e-09
9.861625620083891e-09
9.861586313958739e-09
9.861556655999602e-09
9.861539320697127e-09
9.862628321125516e-09
1.012599568647525e-08
5.591286040492452e-08
5.743207281693757e-06
0.0001375365149734342
0.0007559178159585088
4.338356082781797e-14
6.575129446950982e-12
1.244451184828501e-10
9.133212108279831e-10
4.050165053385768e-09
1.315295893335093e-08
3.435325746181568e-08
7.590583427712942e-08
1.464214075253945e-07
2.525205282571244e-07
3.975849777499009e-07
5.823198412507696e-07
8.061967517477952e-07
1.06702161850574e-06
1.353578641465313e-06
1.681826532583078e-06
2.058011558893609e-06
2.486842042492179e-06
2.972911652075954e-06
3.520941249293344e-06
4.134704725233566e-06
4.813338311766243e-06
5.541130856566114e-06
6.335271544506435e-06
7.206915266974008e-06
8.162189203085537e-06
9.207679219254774e-06
1.035043794499483e-05
1.159799269132136e-05
1.295834867494279e-05
1.443998659005723e-05
1.605185223584177e-05
1.78033355958677e-05
1.970423630112029e-05
2.176471181412271e-05
2.399520395060262e-05
2.640633849853847e-05
2.900879168378895e-05
3.181311605515187e-05
3.482951701041784e-05
3.806756964616941e-05
4.15358638908792e-05
4.524156398899167e-05
4.91898663722354e-05
5.338333785273585e-05
5.782111400778761e-05
6.249793577043105e-05
6.740300086279983e-05
7.251860619852446e-05
7.781855832503545e-05
8.326633222691396e-05
8.881296561808625e-05
9.439468808517662e-05
9.993030493004588e-05
0.0001053183887020624
0.0001104343843669843
0.0001147834915896332
0.0001179376997955016
0.0001199767740165262
0.0001208581891479307
0.0001204014588225296
0.0001183106985346696
0.0001142461074385094
0.0001079738577271415
9.961735474892112e-05
8.996930099000778e-05
8.07521853854963e-05
7.309542715546455e-05
6.497624672983261e-05
4.806720964906053e-05
3.072378143066082e-05
1.577682151374672e-05
5.480588985674578e-06
9.323748011304186e-07
9.876004966963884e-08
1.700087772794583e-08
1.035304690445097e-08
9.859465591759563e-09
9.825646136534891e-09
9.823469972901658e-09
9.823301522719308e-09
9.823248652019214e-09
9.823199847716827e-09
9.823149042850738e-09
9.823096106606472e-09
9.823041048899174e-09
9.822984150738021e-09
9.822925600144728e-09
9.822863552425482e-09
9.822800484970207e-09
9.822739044496766e-09
9.822677716490581e-09
9.822615950090175e-09
9.822553713056276e-09
9.822491955125663e-09
9.822430231907536e-09
9.822370155932658e-09
9.82231435846645e-09
9.822264851156545e-09
9.822223622970773e-09
9.822193179133633e-09
9.822174608610564e-09
9.823925063933266e-09
1.023313216274908e-08
7.992581054792778e-08
8.343436432394926e-06
0.0001668901085562543
0.0008776554022214913
4.238080404964666e-14
6.4231769470036e-12
1.215727866457589e-10
8.923441806565189e-10
3.958320420135836e-09
1.286229477601647e-08
3.362677344723383e-08
7.440226847265131e-08
1.437608596688434e-07
2.483778398516017e-07
3.917431494962939e-07
5.746593534165264e-07
7.966555219990909e-07
1.056233542778362e-06
1.340769201283595e-06
1.666708322490856e-06
2.040375783664643e-06
2.466496435149412e-06
2.949677977174818e-06
3.494653850536248e-06
4.105269778253623e-06
4.780874945205136e-06
5.506313897360479e-06
6.297226639353254e-06
7.165549892083896e-06
8.117440305198149e-06
9.159524501397726e-06
1.029890982079496e-05
1.154319563511222e-05
1.290048065232908e-05
1.437936544874342e-05
1.598894809949992e-05
1.773881049987889e-05
1.963899253897132e-05
2.169995072978141e-05
2.393249721808633e-05
2.634771427708458e-05
2.895683842589433e-05
3.17711071729837e-05
3.480156006780051e-05
3.805878422534256e-05
4.155259276711146e-05
4.529162269744424e-05
4.928283662264928e-05
5.353091046852627e-05
5.803748703516713e-05
6.280027298000046e-05
6.781195485504797e-05
7.305890845621442e-05
7.851967545660491e-05
8.4163182794333e-05
8.994668459536927e-05
9.581341505321268e-05
0.000101689955900064
0.0001074833472943203
0.0001130780114381679
0.0001183326226486119
0.0001225398033432015
0.0001254879056099114
0.0001272298032448506
0.0001276754945549822
0.0001265883860769277
0.0001236266927370809
0.0001184482475675484
0.0001109090015571572
0.0001013506706347796
9.087139160106815e-05
8.140275454797155e-05
7.319508993956328e-05
6.076854350058052e-05
4.219628839881768e-05
2.433921460700586e-05
1.052618229684772e-05
2.55504116380022e-06
2.950075802807118e-07
3.257105305176539e-08
1.141568877307876e-08
9.894844156289128e-09
9.794312229469784e-09
9.788148430842303e-09
9.787758874485661e-09
9.787692919152615e-09
9.787641529818835e-09
9.787588553143149e-09
9.787533382883907e-09
9.787476024363768e-09
9.787416751860344e-09
9.787355787698553e-09
9.787291303000514e-09
9.787225720258207e-09
9.787161728900414e-09
9.787097836880934e-09
9.787033513186755e-09
9.786968750683075e-09
9.786904512075582e-09
9.786840383362985e-09
9.786777834874079e-09
9.786719647612801e-09
9.786668068064216e-09
9.786624955267512e-09
9.78659436430807e-09
9.786574320528352e-09
9.789263711594887e-09
1.040261004895204e-08
1.135508367268492e-07
1.175382404787456e-05
0.0001996953408679081
0.001007799425004409
4.152492225904352e-14
6.293480330511203e-12
1.191210341406092e-10
8.74435324559815e-10
3.879871844018801e-09
1.261379443673352e-08
3.300474555423915e-08
7.311228123395435e-08
1.414728837682149e-07
2.448069583378998e-07
3.866973806835273e-07
5.680319946670816e-07
7.883908526956568e-07
1.046883621101043e-06
1.329658109618361e-06
1.653585045445014e-06
2.025056270631961e-06
2.448809808819375e-06
2.929463998855103e-06
3.471762168701948e-06
4.079612059592552e-06
4.752552015403394e-06
5.475928944377338e-06
6.263990030288805e-06
7.129369083724899e-06
8.078245401446764e-06
9.117277393012314e-06
1.025361549841943e-05
1.149491628525373e-05
1.284935309699438e-05
1.432562265758514e-05
1.593294563985279e-05
1.768105895576237e-05
1.95801971257939e-05
2.164105956010361e-05
2.387475993861609e-05
2.629275310103204e-05
2.890673392994959e-05
3.172850161492134e-05
3.476978140685944e-05
3.804199448684581e-05
4.155596487312213e-05
4.532155036592079e-05
4.934718238592995e-05
5.363929722893921e-05
5.820163878962433e-05
6.30344103050354e-05
6.813325030748906e-05
7.348800601841321e-05
7.908127627548405e-05
8.488669637560775e-05
9.086693984092322e-05
9.697141842705948e-05
0.0001031336736988008
0.0001092684742631377
0.0001152686670815843
0.0001210018870139821
0.0001263044378623525
0.000130172191037763
0.0001327319357471141
0.0001339888538839725
0.0001337885022530101
0.0001318271665950623
0.0001277169764007692
0.000121134678780806
0.0001120853008032447
0.0001012491620472873
9.026926496248119e-05
8.0879281558751e-05
7.201268885003027e-05
5.411213774522287e-05
3.422835676097254e-05
1.706390795240149e-05
5.577836923570696e-06
8.316667974316009e-07
7.764134214765238e-08
1.448847765841109e-08
1.005718363972461e-08
9.773114504268463e-09
9.756318072032132e-09
9.755360717083461e-09
9.755265201440395e-09
9.755210638311498e-09
9.755155608596007e-09
9.755098358333665e-09
9.755038859466857e-09
9.754977381540708e-09
9.754914177177747e-09
9.754847432853504e-09
9.754779524046692e-09
9.754713181240128e-09
9.754646936168674e-09
9.754580264482834e-09
9.754513178329531e-09
9.754446662371489e-09
9.754380325841081e-09
9.754315495382541e-09
9.754255097358501e-09
9.75420167025406e-09
9.75415661207069e-09
9.754126639568782e-09
9.754104974663211e-09
9.758092786708693e-09
1.065207813845824e-08
1.601391239071917e-07
1.612823240994162e-05
0.0002363265899378626
0.001146339246157158
4.077876903835147e-14
6.180410891214651e-12
1.16983503358341e-10
8.588190459903967e-10
3.81143614787362e-09
1.239682800133838e-08
3.24609062881894e-08
7.198231565036918e-08
1.394642351384848e-07
2.416646994830674e-07
3.822474133800392e-07
5.62175238842519e-07
7.810727918497312e-07
1.038396400329287e-06
1.319781193693226e-06
1.6419623986443e-06
2.011492401280445e-06
2.433142927462163e-06
2.911546529205175e-06
3.451456158827548e-06
4.056834153611715e-06
4.72738731395e-06
5.448914992473254e-06
6.234416079071571e-06
7.097143523470839e-06
8.043294260506382e-06
9.079551889928152e-06
1.021310139986406e-05
1.145164559267105e-05
1.280341852979701e-05
1.427719554856075e-05
1.588229797465173e-05
1.762859043033257e-05
1.952646826425741e-05
2.15868321337732e-05