/*--------------------------------*- C++ -*----------------------------------*\
| =========                 |                                                 |
| \\      /  F ield         | OpenFOAM: The Open Source CFD Toolbox           |
|  \\    /   O peration     | Version:  v1812                                 |
|   \\  /    A nd           | Web:      www.OpenFOAM.com                      |
|    \\/     M anipulation  |                                                 |
\*---------------------------------------------------------------------------*/
FoamFile
{
    version     2.0;
    format      ascii;
    class       volScalarField;
    location    "1792";
    object      nut;
}
// * * * * * * * * * * * * * * * * * * * * * * * * * * * * * * * * * * * * * //

dimensions      [0 2 -1 0 0 0 0];


internalField   nonuniform List<scalar> 
44064
(
1.059355327712602e-13
1.604527914859134e-11
3.028116330599117e-10
2.200019913439207e-09
9.521949502297988e-09
2.957438502498103e-08
7.224694202990718e-08
1.466217510847331e-07
2.574043328825927e-07
4.041939677892747e-07
5.784873787805653e-07
7.662047357451747e-07
9.806854788110493e-07
1.224164683795547e-06
1.497569072480112e-06
1.801699547570633e-06
2.137104735328953e-06
2.502498129599448e-06
2.899451278721404e-06
3.328503460212963e-06
3.789902236100027e-06
4.283774505974623e-06
4.810156969353519e-06
5.369016339745125e-06
5.960271239738951e-06
6.583764666419923e-06
7.239254914704553e-06
7.926373913640554e-06
8.64458304555878e-06
9.393123597566343e-06
1.017096295509174e-05
1.097678280885013e-05
1.180915990520968e-05
1.266727430225978e-05
1.35526778366097e-05
1.447252698031434e-05
1.544330568343515e-05
1.648962991126588e-05
1.762290178456022e-05
1.877010631370258e-05
1.962429476880426e-05
2.037547652246389e-05
2.096394792312661e-05
2.133602101677047e-05
2.145164051909388e-05
2.128577662639112e-05
2.082980543854247e-05
2.009210348297981e-05
1.909639514128874e-05
1.78770327445272e-05
1.647259502971112e-05
1.492119968843292e-05
1.325932075446194e-05
1.152295035638963e-05
9.749301889323582e-06
7.97825566728178e-06
6.25429549944452e-06
4.630903668863427e-06
3.176887041463646e-06
1.975049324300537e-06
1.094697524899456e-06
5.4188620000113e-07
2.452625450965006e-07
1.057642635387692e-07
4.646147645509492e-08
2.319889505952312e-08
1.469935817665748e-08
1.179908991897166e-08
1.08753427201523e-08
1.060122150979561e-08
1.052560417480385e-08
1.050625989777517e-08
1.050168144275566e-08
1.050068055717715e-08
1.050047796054922e-08
1.050043887538268e-08
1.050043032347076e-08
1.050042682230384e-08
1.050042392423167e-08
1.050042093376979e-08
1.05004177655315e-08
1.050041442609975e-08
1.050041093680143e-08
1.050040732331968e-08
1.050040361432221e-08
1.050039984105927e-08
1.050039603695825e-08
1.050039223708917e-08
1.050038847751544e-08
1.050038479455242e-08
1.050038122395665e-08
1.050037780011106e-08
1.050037455526502e-08
1.050037151891213e-08
1.050036871740446e-08
1.050036617391445e-08
1.050036390887347e-08
1.050036194105615e-08
1.050036028968263e-08
1.05003589781463e-08
1.05003580382286e-08
1.050035750938898e-08
1.050035762030563e-08
1.050049390363453e-08
1.05564622640963e-08
2.669280781714649e-08
3.326319721157041e-06
5.546093688386242e-05
8.032146470199686e-14
1.217203186992179e-11
2.301698227548612e-10
1.683389266464182e-09
7.39902201467456e-09
2.361322836718613e-08
5.996711698278078e-08
1.275339879997799e-07
2.352383559277188e-07
3.874278941293696e-07
5.844092663141737e-07
8.246269188766712e-07
1.106397587176476e-06
1.415592161869841e-06
1.765714171746409e-06
2.163089537327994e-06
2.610929612612339e-06
3.111437212275875e-06
3.666521151159012e-06
4.27764646742043e-06
4.945895766209822e-06
5.671969016671863e-06
6.456176362375376e-06
7.298438302962308e-06
8.198293928341102e-06
9.154913167244251e-06
1.016711043659327e-05
1.123335696924642e-05
1.235178970183867e-05
1.352021732355168e-05
1.473612768283945e-05
1.599670486538282e-05
1.729886598045239e-05
1.863932030150175e-05
2.001462599423084e-05
2.142116281491063e-05
2.285486480171239e-05
2.431053677357077e-05
2.57807729507807e-05
2.725504983963744e-05
2.872011928060405e-05
3.01613011962045e-05
3.156257075991643e-05
3.290531371697912e-05
3.416604763219074e-05
3.531190463535931e-05
3.629419769027693e-05
3.704654711857217e-05
3.750882226807785e-05
3.771409664115885e-05
3.787891801224029e-05
3.83039355252657e-05
3.893645483269453e-05
3.832261409422967e-05
3.562038115450387e-05
3.240137544603952e-05
2.876677488388985e-05
2.481967242274716e-05
2.06764697526257e-05
1.647608799435986e-05
1.238085385778556e-05
8.573397835897995e-06
5.263181200287404e-06
2.701806600766208e-06
1.102114079666971e-06
3.663780605801661e-07
1.10651657237291e-07
3.610360374479741e-08
1.650969801999265e-08
1.173550406354618e-08
1.064820045619833e-08
1.041618230483523e-08
1.036975099962338e-08
1.036103112056521e-08
1.035949006184067e-08
1.035922839907941e-08
1.035917931097559e-08
1.035916237620199e-08
1.035914912124538e-08
1.035913537990282e-08
1.035912061024649e-08
1.035910477958226e-08
1.035908793087686e-08
1.035907012798078e-08
1.035905145009117e-08
1.035903199195685e-08
1.035901186439377e-08
1.035899119472808e-08
1.035897012694551e-08
1.035894882158441e-08
1.035892745539984e-08
1.035890622082393e-08
1.035888532538889e-08
1.035886499126499e-08
1.035884545529497e-08
1.035882697003018e-08
1.035880980658373e-08
1.03587942604019e-08
1.035878066131441e-08
1.035876939268917e-08
1.035876093684538e-08
1.035875596005453e-08
1.035875863407917e-08
1.036051205120539e-08
1.085148005810458e-08
1.075490855041265e-07
1.216017253608695e-05
0.0001150029250494704
6.506636642538672e-14
9.860615188446064e-12
1.865175141163913e-10
1.365733030026447e-09
6.020999772460271e-09
1.933008279299446e-08
4.956113755324419e-08
1.067702912983553e-07
1.998888041017101e-07
3.341946287522215e-07
5.111217666847151e-07
7.299356608700861e-07
9.894691556629473e-07
1.278394571028602e-06
1.605896172027169e-06
1.981138843084032e-06
2.409333415768098e-06
2.894993076165683e-06
3.442265691464965e-06
4.05339227231985e-06
4.723303142244365e-06
5.43859830429575e-06
6.222300012985977e-06
7.078878580315578e-06
8.012916375327481e-06
9.029041666097895e-06
1.013184912973794e-05
1.132580904968916e-05
1.261515809664063e-05
1.400377021155534e-05
1.54950039862787e-05
1.70915220468284e-05
1.879507630415516e-05
2.060625022619722e-05
2.252414499841629e-05
2.454598984040121e-05
2.666664681448328e-05
2.887796573338231e-05
3.116792305155247e-05
3.346460833446673e-05
3.558924011935788e-05
3.760438653326174e-05
3.95480510832203e-05
4.14340210166108e-05
4.32561791683532e-05
4.499400736515415e-05
4.661787798888896e-05
4.809424608055415e-05
4.939143783059496e-05
5.048309587643953e-05
5.133944091848834e-05
5.189598673295147e-05
5.201527677358414e-05
5.15251108016285e-05
5.045368176269131e-05
4.92115325708063e-05
4.829950563597153e-05
4.748885889954561e-05
4.401305105118616e-05
3.856849672379645e-05
3.257953412404149e-05
2.627332538835001e-05
1.994168623653286e-05
1.39280066847661e-05
8.593866862383959e-06
4.340378394925478e-06
1.617937077355885e-06
4.416150368943301e-07
1.043938701008237e-07
2.863531870917747e-08
1.356489205218623e-08
1.080439567003154e-08
1.033429236297209e-08
1.025959617075633e-08
1.02484827572522e-08
1.024692080446768e-08
1.024670278888805e-08
1.024666157914821e-08
1.024664125177275e-08
1.024662218274311e-08
1.024660204776943e-08
1.024658060053959e-08
1.024655783958933e-08
1.024653380197563e-08
1.024650854312695e-08
1.024648213671314e-08
1.024645467646265e-08
1.024642627829892e-08
1.024639708260221e-08
1.024636725655951e-08
1.024633699670964e-08
1.024630653163744e-08
1.02462761250726e-08
1.024624607934296e-08
1.024621673971332e-08
1.024618849997149e-08
1.024616181027439e-08
1.024613718888585e-08
1.024611523832892e-08
1.024609666287525e-08
1.024608231010432e-08
1.024607344186167e-08
1.024609047753941e-08
1.025309431741253e-08
1.191293271188502e-08
2.962310989979466e-07
2.596570302273081e-05
0.0001856597898164431
5.771447396302026e-14
8.746658905576348e-12
1.654775618421464e-10
1.212549246622045e-09
5.355475925919245e-09
1.725472788383625e-08
4.449119701838882e-08
9.657997209526615e-08
1.824056390073292e-07
3.076816904041518e-07
4.743832839501725e-07
6.82105010964997e-07
9.297518767584448e-07
1.207232570522399e-06
1.519838403049166e-06
1.8779520859555e-06
2.286903179720438e-06
2.751245843743343e-06
3.275488827332854e-06
3.863730057280137e-06
4.517024271005921e-06
5.225935262819069e-06
5.988438625639185e-06
6.824132975592763e-06
7.738314238922917e-06
8.73655062983156e-06
9.824642928179899e-06
1.100857446510853e-05
1.229444585536888e-05
1.368839054775073e-05
1.519646733868706e-05
1.682452534005941e-05
1.857803658470759e-05
2.046189117991654e-05
2.248014979126783e-05
2.463574840247821e-05
2.693015102238515e-05
2.936294778732686e-05
3.193139965162443e-05
3.462993830347882e-05
3.744962209605943e-05
4.037748143449905e-05
4.33956822892279e-05
4.648048453279368e-05
4.960086925755664e-05
5.27166276883832e-05
5.530227909824415e-05
5.750493281262904e-05
5.942053035116057e-05
6.108702308479126e-05
6.249212620462696e-05
6.358728876151649e-05
6.430460169056116e-05
6.457023634881746e-05
6.430612805630769e-05
6.341980708686102e-05
6.181052155101595e-05
5.952772153914843e-05
5.698335268640518e-05
5.469933962650176e-05
5.245012797831669e-05
4.721040429672054e-05
3.948791478988356e-05
3.124715887307521e-05
2.295772285122773e-05
1.520082467371975e-05
8.566648927534408e-06
3.65935900382032e-06
1.041471898136871e-06
2.157696804419711e-07
4.466124573639356e-08
1.542300341622304e-08
1.089915158704696e-08
1.025250758069437e-08
1.016672940078088e-08
1.015613069864253e-08
1.015489291372355e-08
1.015474011921948e-08
1.015470370752043e-08
1.015467772202153e-08
1.015465128697498e-08
1.015462336904753e-08
1.015459390803931e-08
1.01545629494981e-08
1.01545305665013e-08
1.015449685487228e-08
1.015446193482903e-08
1.015442595320728e-08
1.015438908577185e-08
1.01543515396692e-08
1.015431355609572e-08
1.015427541330909e-08
1.015423743028947e-08
1.015419997120245e-08
1.015416345137151e-08
1.015412834528489e-08
1.015409519775268e-08
1.015406464105108e-08
1.015403742275562e-08
1.015401443262075e-08
1.015399666739827e-08
1.015398563628676e-08
1.01540541320981e-08
1.017524698512219e-08
1.452880244765965e-08
6.746166102835153e-07
4.362234202223336e-05
0.0002668807988974913
5.325216718216523e-14
8.070515624423217e-12
1.527043873602082e-10
1.119484687110332e-09
4.950417402427678e-09
1.598737877599078e-08
4.137998584447705e-08
9.029140119008445e-08
1.715660733165859e-07
2.912127957805377e-07
4.516099083342654e-07
6.52640143922245e-07
8.933330979384303e-07
1.165596202829333e-06
1.470346009434486e-06
1.819391240050561e-06
2.218267750283389e-06
2.67152698970833e-06
3.183663237602825e-06
3.759150319175693e-06
4.400670973313235e-06
5.104003381689798e-06
5.85408137977767e-06
6.6769232638822e-06
7.577987513170626e-06
8.563083842674928e-06
9.638355855775629e-06
1.081025695695765e-05
1.208551704491759e-05
1.347109546747871e-05
1.497411703898146e-05
1.660178684515857e-05
1.836127902224065e-05
2.025959407134988e-05
2.23033786155122e-05
2.449870086233247e-05
2.685077445334463e-05
2.93636229126596e-05
3.203967659700333e-05
3.487929390931176e-05
3.788019846244165e-05
4.103682391829369e-05
4.433955976577349e-05
4.777389576369134e-05
5.131947103381729e-05
5.494905103424942e-05
5.862749354005539e-05
6.23104496135302e-05
6.594237013718602e-05
6.932159369703614e-05
7.187869626807323e-05
7.380784464191706e-05
7.52281897550983e-05
7.617177842142558e-05
7.659107528102402e-05
7.638031740225736e-05
7.541125541485185e-05
7.357881892399373e-05
7.084085371041014e-05
6.731282806954288e-05
6.350551257337809e-05
5.999614424610136e-05
5.653351456403752e-05
5.033105304181582e-05
4.066926089855882e-05
3.052748712179415e-05
2.06821261562182e-05
1.203038940290442e-05
5.381497917563289e-06
1.543290836446755e-06
2.886688607527315e-07
5.058125973879952e-08
1.538548482405539e-08
1.072019877265675e-08
1.015005356408942e-08
1.008549617189729e-08
1.007869262978043e-08
1.007800432461614e-08
1.007791631367746e-08
1.007788171082159e-08
1.007784999018946e-08
1.007781680147094e-08
1.007778182708659e-08
1.007774509864515e-08
1.007770669708512e-08
1.007766673213847e-08
1.007762534358151e-08
1.007758270403955e-08
1.007753902191775e-08
1.007749454445313e-08
1.007744956089607e-08
1.007740440600157e-08
1.007735946416382e-08
1.007731517439723e-08
1.007727203704057e-08
1.007723062295562e-08
1.007719158606891e-08
1.007715568124884e-08
1.007712380049019e-08
1.007709704277193e-08
1.007707662795692e-08
1.007706412964085e-08
1.007725407604202e-08
1.012842075501956e-08
1.961657487161644e-08
1.323336816796739e-06
6.355486838178104e-05
0.0003558231500510727
5.016428490562371e-14
7.602619644889748e-12
1.438637349105023e-10
1.055029745552135e-09
4.669417870468371e-09
1.510542172521329e-08
3.920433949572918e-08
8.586644269965498e-08
1.638884793617003e-07
2.794815110108766e-07
4.353248117482405e-07
6.315332984573379e-07
8.672532319655314e-07
1.136060488208302e-06
1.435395702610354e-06
1.778245489117355e-06
2.170352474130271e-06
2.616316830849302e-06
3.12064928220289e-06
3.687989461938608e-06
4.321626829095979e-06
5.019222613546053e-06
5.761186709868752e-06
6.575594009470268e-06
7.468057174435351e-06
8.444506068738098e-06
9.511252214605869e-06
1.067497769107887e-05
1.194271841270297e-05
1.332183730460407e-05
1.481998493551038e-05
1.644504397094884e-05
1.820505326283592e-05
2.01081066978525e-05
2.21622211260045e-05
2.437516679552873e-05
2.675425275805597e-05
2.930605871153787e-05
3.203610376759725e-05
3.494844174476166e-05
3.80451719034146e-05
4.132585370314215e-05
4.478681437649356e-05
4.84203390770159e-05
5.221373527644886e-05
5.614826604991612e-05
6.019795057276784e-05
6.432823289103514e-05
6.849453167293475e-05
7.264072373907114e-05
7.669754730556847e-05
8.058027378573617e-05
8.362918502994798e-05
8.574252026269133e-05
8.707708348586809e-05
8.768838078272828e-05
8.753150768342336e-05
8.648839650111436e-05
8.441238104639361e-05
8.119673996396072e-05
7.688182386327599e-05
7.184150170457721e-05
6.688315715166174e-05
6.252936227613331e-05
5.788582617198052e-05
4.762527667408691e-05
3.5871648413253e-05
2.42268341783953e-05
1.392880007606307e-05
6.070545245908877e-06
1.61424781496297e-06
2.647518831865486e-07
4.199280343539728e-08
1.363523194324942e-08
1.039158037616142e-08
1.004938144000033e-08
1.001593672254235e-08
1.001288129494701e-08
1.001259542813261e-08
1.001254216265825e-08
1.001250532495424e-08
1.001246779301347e-08
1.001242833615821e-08
1.001238692861139e-08
1.00123436538238e-08
1.001229863078206e-08
1.001225201243223e-08
1.001220398882654e-08
1.001215479066118e-08
1.001210469296247e-08
1.001205401898807e-08
1.001200314453873e-08
1.001195250301099e-08
1.001190259146004e-08
1.001185397856494e-08
1.001180731570383e-08
1.00117633523273e-08
1.001172295353763e-08
1.001168712881384e-08
1.001165715689156e-08
1.001163463535425e-08
1.001162151114994e-08
1.001203585430186e-08
1.01150147357406e-08
2.795805820481982e-08
2.308372654263291e-06
8.481929315146941e-05
0.0004516607290477862
4.786955614109552e-14
7.254901879833302e-12
1.372929372069521e-10
1.00709991600991e-09
4.460200212603363e-09
1.444718141619247e-08
3.75744254029882e-08
8.253496130411256e-08
1.58076446554991e-07
2.705554247052539e-07
4.228834530773466e-07
6.153630537840487e-07
8.472401820130938e-07
1.113442330373051e-06
1.408630845973646e-06
1.746744483707738e-06
2.133694307382467e-06
2.574121156708609e-06
3.072560750041041e-06
3.633688846694652e-06
4.260958519224827e-06
4.952520708896483e-06
5.690057480876502e-06
6.498071889519465e-06
7.384022909014101e-06
8.35392218863337e-06
9.414193254048794e-06
1.057166808024141e-05
1.183358020007234e-05
1.320754991426273e-05
1.470155971688545e-05
1.632391681441542e-05
1.808319913836323e-05
1.99881806108626e-05
2.20477306527506e-05
2.427068202411273e-05
2.666566006642955e-05
2.924086528173001e-05
3.200379995637459e-05
3.496092825716677e-05
3.811725795150482e-05
4.147583072162803e-05
4.503710709123586e-05
4.879823143076834e-05
5.275216259685429e-05
5.688665679835938e-05
6.118309166409438e-05
6.56151247626648e-05
7.014718667029342e-05
7.47328184892555e-05
7.931287558088991e-05
8.381363627091397e-05
8.814492224963361e-05
9.218138117310174e-05
9.500958044057543e-05
9.680748959124065e-05
9.767098718936597e-05
9.758477865958517e-05
9.643444335291913e-05
9.405341941338082e-05
9.03059533187582e-05
8.521072029235547e-05
7.910737465197545e-05
7.29452505395123e-05
6.751541921843108e-05
6.20050801066802e-05
5.192780277773623e-05
3.865823099259863e-05
2.547171994138575e-05
1.399058455299414e-05
5.571876533550939e-06
1.254414760796321e-06
1.75716760373525e-07
2.79485380201518e-08
1.173256896918039e-08
1.011821888336199e-08
9.969853455485953e-09
9.957209134446431e-09
9.956181089092948e-09
9.95607174124048e-09
9.956027869385341e-09
9.955986401678956e-09
9.9559430429594e-09
9.955897582986783e-09
9.955850102313146e-09
9.955800730249672e-09
9.955749633850353e-09
9.955697020883469e-09
9.955643143686714e-09
9.955588303205119e-09
9.955532853276883e-09
9.955477205406845e-09
9.955421834394435e-09
9.955367285157701e-09
9.955314181586355e-09
9.955263238877151e-09
9.955215282639924e-09
9.955171271256591e-09
9.955132302632207e-09
9.955099737040498e-09
9.955075605046963e-09
9.95506320814455e-09
9.955842583550565e-09
1.013891011371907e-08
4.04257992112903e-08
3.699980628859419e-06
0.0001073485229775838
0.0005552395435365954
4.607979064755735e-14
6.983697256073042e-12
1.321674828085886e-10
9.696983661930359e-10
4.296778690278887e-09
1.393204733142179e-08
3.629503076971516e-08
7.990948664015973e-08
1.534755640421635e-07
2.63459133670153e-07
4.129573449644345e-07
6.024279070751609e-07
8.312021806456019e-07
1.095323795543841e-06
1.387172569952439e-06
1.721471567327145e-06
2.104266946270635e-06
2.540230111631448e-06
3.033925029873382e-06
3.590048858259812e-06
4.212181253152971e-06
4.898843060782827e-06
5.632666451431339e-06
6.43547718371503e-06
7.316108814871897e-06
8.280631675363196e-06
9.335549577306005e-06
1.04878016847692e-05
1.174476238382114e-05
1.311423472753175e-05
1.46044359635381e-05
1.622397238923431e-05
1.798180036743594e-05
1.988716975902879e-05
2.194954532076935e-05
2.417850076985232e-05
2.65835792311684e-05
2.917411265300675e-05
3.195899150204463e-05
3.494637464494162e-05
3.814332781436572e-05
4.155537749049239e-05
4.518596549111771e-05
4.90357881684613e-05
5.310200304014478e-05
5.73772851817137e-05
6.18487161106671e-05
6.6496489633285e-05
7.129242275802319e-05
7.619826599445494e-05
8.116381705583293e-05
8.612485640521148e-05
9.100094331135006e-05
9.569313382550598e-05
0.0001000817335624139
0.0001034394948307684
0.0001055953822064861
0.0001066397119221064
0.0001065533414535159
0.0001052090038014452
0.0001024169269642855
9.802049503360104e-05
9.205048998300912e-05
8.492303523758276e-05
7.76746909642008e-05
7.12371396103266e-05
6.487231197463871e-05
5.367791116964023e-05
3.888211506032071e-05
2.442423903483051e-05
1.235155605349501e-05
4.1647716539376e-06
7.307016569932519e-07
8.94509825214244e-08
1.743195139978921e-08
1.055940742724219e-08
9.959003688894425e-09
9.910544152197774e-09
9.90689520818598e-09
9.906606107894839e-09
9.906548028984048e-09
9.906502593664358e-09
9.906455723545305e-09
9.906406643954406e-09
9.906355412934197e-09
9.906302169238377e-09
9.906247093859857e-09
9.906190411914326e-09
9.906132396722889e-09
9.906073374121894e-09
9.90601372702412e-09
9.905953900495724e-09
9.905894407742237e-09
9.905835837479042e-09
9.905778863430264e-09
9.905724256866966e-09
9.905672907694273e-09
9.905625859396605e-09
9.905584303086854e-09
9.905549591424306e-09
9.905524052605532e-09
9.905513766985357e-09
9.9068340112425e-09
1.020483513327044e-08
5.803563879434811e-08
5.575665926675635e-06
0.0001314694183959774
0.0006676075585619686
4.463652964254939e-14
6.764996511911814e-12
1.280339499721586e-10
9.395255034993541e-10
4.164836306127342e-09
1.351549507671763e-08
3.525792141374722e-08
7.777418098214673e-08
1.497196150154129e-07
2.576449252114601e-07
4.047994049042541e-07
5.917716518016983e-07
8.1796696808242e-07
1.080367372780185e-06
1.369441684585854e-06
1.700571282986306e-06
2.079912804632636e-06
2.51216175804638e-06
3.001903502143816e-06
3.553852394566823e-06
4.17168998184886e-06
4.854237525412384e-06
5.584904698927701e-06
6.383331567528627e-06
7.259464073073825e-06
8.219415808043517e-06
9.269750198424917e-06
1.041748632743831e-05
1.16701038509184e-05
1.303554256056723e-05
1.452219540136085e-05
1.613889245810968e-05
1.789487306669907e-05
1.97997426865246e-05
2.186341051870843e-05
2.409600306679888e-05
2.65077479067662e-05
2.91088208471476e-05
3.190914840996664e-05
3.491815614903869e-05
3.814445174713116e-05
4.159543011843606e-05
4.527678593834195e-05
4.919191719725187e-05
5.334120165569374e-05
5.772112664695465e-05
6.232325179340522e-05
6.713298424779607e-05
7.212814754747514e-05
7.727732877370913e-05
8.253799537412782e-05
8.785438401268778e-05
9.315518097501443e-05
9.835103982090518e-05
0.0001033320214181562
0.0001079650963130566
0.0001114935147535541
0.0001137488329878188
0.0001147855602102916
0.0001145423257769531
0.0001128481296578755
0.000109476640455222
0.0001042608541157021
9.727820957130593e-05
8.907419181437497e-05
8.087545092848998e-05
7.369396186165659e-05
6.651591700248192e-05
5.29037136328024e-05
3.660913639699883e-05
2.132486013346251e-05
9.44427849737787e-06
2.434584235612462e-06
3.212387462987973e-07
3.887845175960714e-08
1.227925064569644e-08
1.004812101811012e-08
9.875927278388874e-09
9.863625686174107e-09
9.862776299994537e-09
9.862682181629518e-09
9.862631904622759e-09
9.862581790250159e-09
9.862529429874317e-09
9.862474805730262e-09
9.862418063154262e-09
9.862359396250153e-09
9.862299046418944e-09
9.86223730652991e-09
9.862174525460538e-09
9.862111112897107e-09
9.862047544660277e-09
9.861984368976326e-09
9.861922214305377e-09
9.861861799689433e-09
9.861803947411501e-09
9.86174960216272e-09
9.861699880319644e-09
9.861656090082557e-09
9.861619553963958e-09
9.861592577199405e-09
9.861585462024293e-09
9.863644462086667e-09
1.031687708595943e-08
8.188770913730382e-08
8.016310113862659e-06
0.0001575949308070931
0.0007893604309335165
4.344404428148853e-14
6.584294870610904e-12
1.246183824604507e-10
9.14586899768788e-10
4.055710234835968e-09
1.317053107181386e-08
3.439728068459672e-08
7.599729921427938e-08
1.465842155774627e-07
2.527762171937798e-07
3.979498046481619e-07
5.828056705083856e-07
8.068137774409295e-07
1.067757364578062e-06
1.354477943932634e-06
1.682918249210089e-06
2.059326723594283e-06
2.488417897642892e-06
2.974793293100376e-06
3.523180944959381e-06
4.137347245859094e-06
4.816368405962509e-06
5.544322288459713e-06
6.338978708699249e-06
7.211227523472769e-06
8.167214963567764e-06
9.213549914404969e-06
1.035731282320246e-05
1.160606455880104e-05
1.296785074388123e-05
1.445120060477713e-05
1.606511806191089e-05
1.781906246730591e-05
1.972291592437856e-05
2.178693352136638e-05
2.402167207527689e-05
2.643789210881717e-05
2.904642674946403e-05
3.185801003598968e-05
3.488305573501319e-05
3.813137619807769e-05
4.161182903573853e-05
4.533187747215254e-05
4.929704821206385e-05
5.351026858788805e-05
5.797106278783437e-05
6.26745852981285e-05
6.761046862722037e-05
7.276146233932582e-05
7.810184201947834e-05
8.359557085976759e-05
8.91942042578727e-05
9.483454079197359e-05
0.0001004360435141076
0.0001058980871540797
0.0001110971350322592
0.0001158840193120977
0.0001193106773432677
0.0001214273022277543
0.0001222427514968109
0.0001216360940377803
0.0001193771153089251
0.0001152005113991985
0.0001089515451376788
0.0001008070037041359
9.150937983639013e-05
8.254380228323186e-05
7.484936202663719e-05
6.667401503058072e-05
4.964070782263393e-05
3.204721317089726e-05
1.669666335580059e-05
5.970555660423858e-06
1.056478088052725e-06
1.12218352453549e-07
1.810898643422782e-08
1.043550042432533e-08
9.865178771092258e-09
9.826088161331124e-09
9.82357667589729e-09
9.823385190445786e-09
9.823327157853538e-09
9.823273910745731e-09
9.823218536778614e-09
9.823160805623023e-09
9.823100862882477e-09
9.823038914945037e-09
9.822975218602296e-09
9.822910085044099e-09
9.822843884566068e-09
9.822777051543961e-09
9.822710089967396e-09
9.822643579915428e-09
9.822578185651979e-09
9.822514666911234e-09
9.822453892874618e-09
9.822396856293144e-09
9.822344726175514e-09
9.822298942737333e-09
9.822260865050323e-09
9.822232352872152e-09
9.822229039966019e-09
9.825237040241705e-09
1.047898913880713e-08
1.133122495048359e-07
1.110992716485847e-05
0.0001861791949670113
0.000920695065046879
4.243815934247838e-14
6.431868393474386e-12
1.217370985664178e-10
8.93544700730398e-10
3.963582560913565e-09
1.28789849819097e-08
3.366864579719065e-08
7.448942260370088e-08
1.439162944480657e-07
2.48622346258063e-07
3.920923500524722e-07
5.751243998081261e-07
7.972456298169599e-07
1.056934045516996e-06
1.341623083146911e-06
1.667741665040675e-06
2.041615837321101e-06
2.467975286035722e-06
2.951433806332263e-06
3.496730280904099e-06
4.107703316055762e-06
4.783650905134195e-06
5.509240247110501e-06
6.30059952570291e-06
7.16944075287358e-06
8.121935131167258e-06
9.164726819303132e-06
1.030494431721237e-05
1.155021250859401e-05
1.290866083359404e-05
1.438892683482987e-05
1.600015296643514e-05
1.775197427560956e-05
1.965449413313457e-05
2.171824462771169e-05
2.39541275509648e-05
2.637333107547617e-05
2.898721624668912e-05
3.180716625618923e-05
3.484439012593119e-05
3.810967089111929e-05
4.161304662326081e-05
4.536341068722776e-05
4.936801549850073e-05
5.363186179454092e-05
5.815695314523473e-05
6.294139325167172e-05
6.797830175432062e-05
7.325452312522792e-05
7.87491032528887e-05
8.443151023494718e-05
9.025958063580084e-05
9.617718138659464e-05
0.0001021115924520207
0.0001079706389749993
0.0001136396376350887
0.0001189782761405065
0.0001236411799573853
0.0001268364138320804
0.0001286515134795228
0.0001290480371166231
0.0001278447734642779
0.0001247565646852374
0.0001195016471477603
0.000111997736423204
0.0001026273464851713
9.243993612649062e-05
8.312985586607248e-05
7.482857231004646e-05
6.246846630247101e-05
4.374545848119186e-05
2.555311845617771e-05
1.12814410492359e-05
2.853550381635045e-06
3.387337086835839e-07
3.625654958794238e-08
1.16841410129121e-08
9.912814538685252e-09
9.795505296290312e-09
9.788307077379672e-09
9.787855036069897e-09
9.787781343243621e-09
9.787724803327674e-09
9.787666619488869e-09
9.787606009893085e-09
9.787543105853189e-09
9.787478125009674e-09
9.787411338817889e-09
9.787343075808791e-09
9.787273726401304e-09
9.787203748000314e-09
9.787133670680166e-09
9.787064103835976e-09
9.786995744328345e-09
9.786929388283672e-09
9.786865948058246e-09
9.786806462548665e-09
9.786752131882134e-09
9.786704514269453e-09
9.786665150849346e-09
9.786635047926126e-09
9.786635746688482e-09
9.790815407380518e-09
1.069668635455198e-08
1.541655638226075e-07
1.495850471990723e-05
0.0002177320398398838
0.001061583208238471
4.157463876738834e-14
6.301014272238987e-12
1.192634715990802e-10
8.754762508167203e-10
3.884436963366245e-09
1.262828927187924e-08
3.304117204799188e-08
7.318827619524905e-08
1.416087871100323e-07
2.450213411420889e-07
3.870043465416555e-07
5.684416804397395e-07
7.889116106677954e-07
1.047503560738071e-06
1.330414386578772e-06
1.654500353692193e-06
2.026154308784436e-06
2.45011830042883e-06
2.931015654323237e-06
3.473593967512259e-06
4.081754157686382e-06
4.754989243202306e-06
5.478490820379306e-06
6.266933122685448e-06
7.132751407120199e-06
8.082136372262263e-06
9.121760131652727e-06
1.025878963760435e-05
1.150090135535986e-05
1.285629260629248e-05
1.433368899250503e-05
1.59423459298672e-05
1.769204206728948e-05
1.95930619693962e-05
2.165616491436134e-05
2.389253601106104e-05
2.631371505967067e-05
2.89314976459186e-05
3.175780185496091e-05
3.480449270043107e-05
3.80831548635816e-05
4.160480261883324e-05
4.537951387756562e-05
4.941597311765221e-05
5.372090561593079e-05
5.829838292274583e-05
6.314897702253663e-05
6.826873829495164e-05
7.364797049590926e-05
7.926977493558031e-05
8.510833643688288e-05
9.112692636930513e-05
9.727560430191643e-05
0.0001034886113627446
0.0001096814678167872
0.0001157478186364325
0.0001215561203332321
0.0001269463412444429
0.0001312288884316935
0.0001340187166643856
0.0001353534122694541
0.0001351235606187344
0.0001330760595530021
0.0001288795830990308
0.0001222734658897527
0.0001133168451307708
0.0001026924467159766
9.19235677882678e-05
8.252808556978535e-05
7.346661821349865e-05
5.578378173269318e-05
3.568445069439305e-05
1.80800060034525e-05
6.105754204936116e-06
9.520976368518637e-07
8.891117313107912e-08
1.53025204653847e-08
1.011046062556132e-08
9.776408229204386e-09
9.756599711655905e-09
9.755471492832996e-09
9.755362289377444e-09
9.755301742085587e-09
9.755240889327649e-09
9.755177584484931e-09
9.755111911155043e-09
9.755044096544965e-09
9.754974426092208e-09
9.754903244807126e-09
9.754830962116634e-09
9.75475805703777e-09
9.754685083958261e-09
9.754612679474541e-09
9.754541570546644e-09
9.754472585941615e-09
9.754406676815815e-09
9.754344930173449e-09
9.754288563877302e-09
9.754239203582477e-09
9.754198761311135e-09
9.754167109907572e-09
9.754171659331956e-09
9.759765582948864e-09
1.0978731460802e-08
2.071889734398777e-07
1.968387483861162e-05
0.0002528263860414481
0.001211881423290538
4.082066929105565e-14
6.186760426267609e-12
1.171035564270839e-10
8.596966140855865e-10
3.815287323504375e-09
1.240907134283232e-08
3.249173762094572e-08
7.204682378121357e-08
1.395800144241142e-07
2.418480892780364e-07
3.825111539532448e-07
5.625288428841009e-07
7.815244235986298e-07
1.038954675988067e-06
1.320446608757518e-06
1.642765463894163e-06
2.012456736781268e-06
2.434293960424855e-06
2.912913578692168e-06
3.453071948042273e-06
4.058724758706614e-06
4.729537262408374e-06
5.45116765842522e-06
6.237003161609137e-06
7.100114498587675e-06
8.046707968251037e-06
9.083478371175476e-06
1.021762414194976e-05
1.145686424067392e-05
1.28094521634883e-05
1.428418663193132e-05
1.589041710378591e-05
1.763804202551984e-05
1.953749737372669e-05
2.159973253895601e-05