/*--------------------------------*- C++ -*----------------------------------*\
| =========                 |                                                 |
| \\      /  F ield         | OpenFOAM: The Open Source CFD Toolbox           |
|  \\    /   O peration     | Version:  v1812                                 |
|   \\  /    A nd           | Web:      www.OpenFOAM.com                      |
|    \\/     M anipulation  |                                                 |
\*---------------------------------------------------------------------------*/
FoamFile
{
    version     2.0;
    format      ascii;
    class       volScalarField;
    location    "5702";
    object      omega;
}
// * * * * * * * * * * * * * * * * * * * * * * * * * * * * * * * * * * * * * //

dimensions      [0 0 -1 0 0 0 0];


internalField   nonuniform List<scalar> 
44064
(
1142162.6198658
209486.6600990246
73180.62214439161
35344.97648285871
20634.53576179782
13674.24544288813
9923.305219544625
7684.365542472331
6221.146927954666
5186.75685102859
4410.24190290246
3799.716080394655
3301.822375050803
2885.59190494867
2532.014861507482
2228.594358467424
1966.51589019854
1739.099406101361
1541.035346889894
1368.012804013347
1216.455498183253
1083.358911759613
966.1921178151483
862.8719900363246
771.5359856717416
690.5145338432326
618.4861399263988
554.3130063454549
497.0147895504122
445.7466414737131
399.7797513296215
358.4843955219276
321.3152353768584
287.7984567894547
257.5203324245242
230.1169903423955
205.2657570944139
182.6795742698242
162.1075657142837
143.3458397018376
126.265359368092
110.8827092823737
97.3352540512233
85.63101992444045
75.55969304111623
66.87836458631773
59.37304277386214
52.83179478288025
47.06467913396466
41.90452601615122
37.21316260329048
32.89027863367161
28.87819213310361
25.15744841815625
21.73653800116283
18.64161498215488
15.90819859865379
13.57394687618816
11.67095634330746
10.21315075164824
9.193586935641543
8.568203303121631
8.238881525842382
8.086383375411565
8.023259490798175
8.000450658548095
7.992431173733285
7.989809924383098
7.989001118026844
7.988750838423109
7.988697425405548
7.988685688616117
7.988679489179875
7.988677036832331
7.988675935569144
7.988674484264722
7.98867290682947
7.988671248456909
7.988669465548922
7.9886675692466
7.988665573594933
7.988663485827395
7.988661317928681
7.988659084950783
7.988656802261106
7.988654483245734
7.988652197714119
7.988649685714811
7.988647442140908
7.988645492775817
7.988643272933289
7.988641165411203
7.988639203515159
7.988637279480292
7.988635829212124
7.98863403964523
7.988632405258851
7.988631560998573
7.988630795762437
7.98863008315856
7.988629574446419
7.98862929735906
7.988629306223063
7.988629707271146
7.988632824147129
7.989415223636483
8.174976108831451
23.73364010860431
1142169.24831951
209395.5660507046
73030.52109197526
35118.2677347331
20326.16271724431
13295.29896211293
9496.534574817386
7236.220272455538
5773.767945931906
4753.79218277111
3997.117228271462
3409.884592634581
2939.417586581808
2553.067923202777
2229.835048441815
1956.050238048184
1722.211987769938
1521.310770641356
1347.92752077915
1197.733763321687
1067.194892758627
953.3845916292789
853.8598252195569
766.5704496495598
689.788816393622
622.0550187095969
562.1332312448353
508.9740691296544
461.6842659159632
419.5014494677908
381.7731646190213
347.9394304414565
317.5182455837719
290.0935649752585
265.3053683318323
242.8415262116652
222.4312364637091
203.8398338894121
186.8647306572918
171.332067459976
157.0932981248147
144.0204088841127
131.9978114071758
120.9105873103902
110.6354855034497
101.045604658225
92.02725974655921
83.48514706671106
75.33269805574361
67.52414307185228
60.30341075172039
53.88542129385839
48.16893220294785
43.06672180914054
38.46529868629808
34.17633032493986
30.07365941047475
26.10365116132927
22.27230920629094
18.63796660874766
15.30221611737979
12.38752230406567
10.02377097809249
8.324380390379549
7.338225962012511
6.918655219213768
6.781984535505148
6.746639589008223
6.738065648804699
6.736250362744378
6.735808567391127
6.735682814529869
6.73563810384088
6.735598386781211
6.735552582389957
6.735499956191804
6.735440194898398
6.73537306838741
6.735298486574481
6.735216391401656
6.73512679171519
6.735029781874665
6.734925527641421
6.734814268067912
6.734696323202558
6.734572081247761
6.734442133488099
6.73430676311645
6.734166303830963
6.734025341314071
6.733883463463276
6.733739097396633
6.733592314472146
6.733443686615614
6.733294494997422
6.733142602845102
6.733012753231295
6.732904041529109
6.732809130787705
6.732730674723992
6.732672680260551
6.73264018819762
6.732639718368626
6.732681117348603
6.732793686605652
6.736403535609803
7.328466232325071
29.15442079202464
1142167.511522453
209386.2038624695
73004.87057874874
35069.18347240763
20250.37246139474
13194.56906157936
9377.438907754684
7108.103382129276
5645.541667458431
4631.446151051159
3883.216372851733
3304.511293767157
2842.167161531211
2463.604437084307
2147.495219322189
1880.029528982587
1651.751187037067
1455.783546049698
1286.873959732553
1140.862664597694
1014.359954804607
904.508636941045
808.749145980054
724.8885029072694
651.1799202200801
586.1930119810683
528.7322152628502
477.792151245404
432.5228652604855
392.2022744588384
356.2141651141954
324.0305033788004
295.197132523448
269.3221560867087
246.0664742733177
225.1360679689759
206.2757230194664
189.2639659122626
173.9090478209502
160.0458741233639
147.5277475835194
136.1997464831111
125.9078170577055
116.5210695878204
107.9264447777535
100.0247194532537
92.72740807796465
85.95353228311858
79.62561830181622
73.66606489640726
67.99780007535827
62.54697749382577
57.24675387638072
52.03559440549237
46.98612132643407
42.37005263811517
38.18311684520764
34.28146224615833
30.58934804081962
26.99408578611727
23.39483533436612
19.79203685196694
16.25126521384759
12.91886475885019
10.02597711626618
7.840996673078639
6.553468365741867
6.048556771627106
5.917227101909011
5.890709801028506
5.885918871265014
5.885071339836805
5.884894809171567
5.884817650233776
5.884747541626853
5.884672349580653
5.884590170687237
5.88450036132586
5.884402659635163
5.884296882435575
5.884182901578575
5.884060648117005
5.883930113880068
5.883791358863474
5.88364452677173
5.883489804976554
5.883327623012847
5.883158180929129
5.882981561269011
5.882806197728748
5.882629294791106
5.882447204334666
5.882260190249759
5.882069148718051
5.881875745596536
5.881678683185354
5.88150148138219
5.881345879109171
5.881205528058131
5.881086387950115
5.880994785523249
5.88093843842886
5.880926930972501
5.880973186473431
5.881136859284478
5.890015264853386
7.08274183240706
31.77408098041554
1142166.559608585
209381.1281258194
72990.86953709592
35042.24436558775
20208.54935230539
13138.66803815495
9311.018126847452
7036.509811064054
5574.175808669452
4564.203003507663
3821.970660551782
3249.550185221972
2792.902830055477
2419.463095253522
2107.986996946961
1844.536776808906
1619.671509929185
1426.592160121907
1260.144994381964
1116.2681430068
991.6540416779635
883.4918045420827
789.2056091041866
706.6247940241938
634.0558063019747
570.0906777569236
513.5515996540082
463.4476855075655
418.9409806555703
379.3194797018592
343.9755118472427
312.3883052619748
284.10983319794
258.753257726154
235.9834441942833
215.5091368493455
197.0764743994005
180.4635911225929
165.4760995694679
151.9432882283734
139.7148935993013
128.6583748101674
118.6568550315925
109.6077178818133
101.4216909037595
94.02250300352027
87.32246497287784
81.22463496556536
75.6444362913212
70.50715125108081
65.74572149278966
61.29913149006487
57.11067615159656
53.12538526192197
49.28732169888036
45.53328334669578
41.77887603294872
38.02049886743989
34.50280076031174
31.22549207327337
28.04122067052895
24.88197133861203
21.66281661855303
18.32083307176971
14.90338482874957
11.57807625445771
8.673139632635641
6.60857825029431
5.613567359143715
5.333684482610591
5.2813893919529
5.273245029974433
5.272047969259748
5.271829909261982
5.271731975501716
5.271642083144833
5.2715462840031
5.271442582299133
5.271330556990408
5.271209957709134
5.271080609038836
5.27094241299911
5.270795334147262
5.270639406987078
5.270474765049458
5.270301577004905
5.270120262856097
5.269931101837416
5.269734237615942
5.269536608606299
5.269336231866967
5.269130274884993
5.268919217193165
5.268704161168082
5.268486916706951
5.268266825063552
5.268063965636231
5.267882483655282
5.267719307598893
5.267580752879298
5.267474052135888
5.267408270266254
5.267394878352669
5.267448813580933
5.267689335774322
5.285934623109781
7.217869316931941
33.4355563866473
1142165.961123908
209377.9410587902
72982.05976355699
35025.24116538085
20182.03815098297
13103.03332598645
9268.392379088735
6990.244892844376
5527.796157618276
4520.37643674756
3782.081593552933
3213.90668922532
2761.184116185989
2391.310637520303
2083.068127486726
1822.421600186148
1599.932560975407
1408.847218412679
1244.071613552507
1101.604151275291
978.192685781156
871.0751531893346
777.7067402680916
695.9352839256916
624.0837842219546
560.7576107697603
504.7896755510071
455.1978864367084
411.1515970095454
371.9449587865953
336.9755505460806
305.7271211564586
277.7555663558535
252.6774680078817
230.1606780519996
209.9165444204135
191.693463260517
175.271508394615
160.4579403602457
147.0834373913862
134.9989222029355
124.0728836071564
114.1891121098219
105.244782437986
97.14882424358284
89.82052613999012
83.18831351600645
77.18908688117935
71.76834597299991
66.86547278583652
62.4109203548108
58.33979420663014
54.59395257600268
51.11987440693112
47.86647823011658
44.78265405679845
41.81472493909902
38.90612503438552
35.99454371270808
32.99500251041705
30.09401924090082
27.34381039300665
24.58919377900142
21.76296898717419
18.79305682423241
15.60903924273419
12.28198529289415
9.098098460123127
6.591685818756223
5.264503621707416
4.884240761486243
4.819542969336014
4.810788355229285
4.809666090925646
4.80946520655401
4.809360325682617
4.809258335370347
4.80914896384206
4.809030960040052
4.808904076733475
4.808768151457393
4.808623038073046
4.808468655498861
4.808304995436849
4.808132160727836
4.807950284418628
4.807759742067908
4.807560831740884
4.807353709125786
4.807144258093075
4.806931022552103
4.806711734722271
4.806487061789836
4.806258276508228
4.806027337195603
4.805794106708353
4.805576245064532
4.805379515587029
4.805204123346665
4.805055322016781
4.804940975609373
4.804871028018292
4.804858160774386
4.804917973892966
4.805269459496272
4.838211946971307
7.577922406958466
34.58434637808215
1142165.541540545
209375.7097667047
72975.88347060207
35013.29533676164
20163.35526956125
13077.81657820499
9238.071519406927
6957.144483670827
5494.430796723288
4488.714508962911
3753.197328775751
3188.087413566941
2738.237194588635
2370.997480657262
2065.156845407511
1806.601226669565
1585.888975568152
1396.295924000952
1232.76924036616
1091.349343915577
968.8232020852657
862.4648379400955
769.7649072944179
688.58860184182
617.2651928836526
554.4094373289308
498.8618150732275
449.6464396644242
405.9378193289378
367.0344459475386
332.3375988475054
301.3342171265657
273.5829732056206
248.7028849101707
226.3639545777633
206.2794369449071
188.1994233401821
171.9054953655273
157.2062519593357
143.9335531830857
131.9393550156831
121.0930338733284
111.2791189859293
102.3953663392621
94.35112052226424
87.06592130503739
80.46832092245967
74.49488694653611
69.08936641819894
64.20197558507731
59.78919740538852
55.80557280834997
52.19744520505807
48.9109056954644
45.89703879392042
43.1099332405999
40.50431809122542
38.03255862649571
35.64097199684864
33.2671306475521
30.84657081440257
28.34261645222132
25.90599700200291
23.49533393454022
20.9936419067839
18.33842144911242
15.41598868305938
12.21252025585794
8.961770729012688
6.285090203772724
4.878903749245586
4.510020822743996
4.455472580822499
4.449052723092017
4.448300815760844
4.448140670021722
4.448030576204908
4.447917781575282
4.447797183495995
4.4476677770132
4.447529186628948
4.447381297678456
4.447224034924512
4.447057369128705
4.446881385045634
4.446696197287021
4.446502147737936
4.446299542098581
4.446088543959847
4.44587427356706
4.44565561705284
4.445430802229247
4.44520055304099
4.444966199103911
4.444729764715982
4.444491445694514
4.444267053495338
4.444063314416804
4.443881896507134
4.443728115105168
4.443610151520896
4.443538456745707
4.443526602398212
4.443589776050684
4.444098056798844
4.498249663505448
8.056936419261488
35.30486577941468
1142165.225562706
209374.0309810683
72971.23182342522
35004.28391845762
20149.22876778512
13058.68885198821
9214.979177646248
6931.818877631943
5468.785440062084
4464.285028364722
3730.852636389568
3168.087231653768
2720.45731791038
2355.268270180832
2051.307176743099
1794.393466100333
1575.07994473709
1386.663246284784
1224.121349478298
1083.526755302805
961.6965158045131
855.9333320511478
763.7581521916778
683.050397005868
612.1432467162009
549.6587381041506
494.4432172851845
445.5255990185683
402.0843706653377
363.4213661047359
328.9407061154656
298.1317723968928
270.5553574415005
245.8323343957488
223.6343403171067
203.6760780955903
185.7089270732466
169.5156173210489
154.9057727128013
141.7121669895852
129.787567648414
119.002066678027
109.2408163670546
100.4021037917549
92.39570999334445
85.14150996828847
78.56827797098744
72.61266972418495
67.21835934189941
62.33531465183636
57.91920131970348
53.93090209392267
50.33645219074939
47.09587316076084
44.16215776694301
41.49115243902958
39.04161784742729
36.77299850886892
34.64247748310201
32.60131429948707
30.59168747467659
28.5469200574457
26.39685967073009
24.23602919471423
22.09088310388347
19.84510901965817
17.41698685229246
14.68956438103181
11.58847541498191
8.339178175049121
5.697994405159056
4.460485131008545
4.19447591779605
4.161540422620444
4.158135087292228
4.157734522832434
4.157604156795828
4.157489214234035
4.157367567502781
4.157237174700287
4.157097707920578
4.156948989616605
4.156790918418098
4.156623450368476
4.156446659649081
4.156260654320814
4.156065755250713
4.155862274623218
4.155650387462038
4.155434643977713
4.155214193226452
4.154987631297367
4.154755706478846
4.154519778890642
4.154281904409442
4.15404250300546
4.153815930411035
4.153609484398409
4.15342568507416
4.153270047838664
4.153150932284613
4.153078895688683
4.153068676392978
4.153133907908489
4.153863652593195
4.237360000850472
8.59177804068845
35.67608439250667
1142164.978013401
209372.7163535727
72967.58614044721
34997.2120045256
20138.1217951975
13043.61145265769
9196.718417308044
6911.718895999201
5448.357293993622
4444.765074807472
3712.95980153078
3152.053069225679
2706.198251273354
2342.657727880276
2040.212921556271
1784.626747683797
1566.445721855207
1378.981945606936
1217.23752022848
1077.310450228343
956.041890250232
850.7580485749991
759.005856947193
678.6765941782712
608.1060057002803
545.9219737706081
490.9755537753132
442.2995111021692
399.0755202838708
360.6080879555241
326.3036033909675
295.6533946137561
268.2199399379924
243.6255845852657
221.5432597563216
201.6888122795285
183.8146369153284
167.7043677384435
153.1684347771968
140.0403308345483
128.1734638255896
117.4384939782426
107.7210743015915
98.91992797931989
90.94520861956111
83.71709925933975
77.16461421308196
71.22457470423944
65.84073510708066
60.96304191738476
56.54701266945884
52.55322741325701
48.94693221342504
45.69775088326202
42.7736994728139
40.13628751219142
37.74588836530424
35.56541203447826
33.55818340976159
31.68500512108951
29.9003271494253
28.14851170273119
26.3634824461866
24.47877336511847
22.54516353709638
20.59726001161248
18.53581441705343
16.26573661376872
13.64673846448708
10.57687690901547
7.353341456050779
4.961024774096614
4.077559583688001
3.934889570843423
3.920167849744035
3.918779318929629
3.91856977288656
3.918448753139925
3.91832674426734
3.918196525748923
3.918057297075775
3.917908883075261
3.917751189240962
3.91758416452464
3.917407874442657
3.917222423487027
3.917028116690074
3.916825269462139
3.916614066472318
3.916398615122799
3.916178264729754
3.915951842678655
3.915720146739778
3.915484559231211
3.915247156117657
3.915008521353018
3.914781852203667
3.914574836406302
3.914390588769023
3.914234755615181
3.914115759943952
3.914044083275069
3.914035976728568
3.914102985875343
3.915139853064091
4.037915814858605
9.147367276450419
35.82223540050235
1142164.778568261
209371.6575801907
72964.64799383482
34991.50651756379
20129.1472885853
13031.40384355725
9181.895091082037
6895.354069988534
5431.675428631693
4428.783779718735
3698.283725783414
3138.887925450912
2694.486351146299
2332.301638453797
2031.107470590367
1776.618195543429
1559.373911021655
1372.698647824297
1211.613867275864
1072.238297290965
951.4328845527276
846.5434930358737
755.1395378461913
675.1223452943711
604.8293924126677
542.8933730355249
488.1692190755259
439.6928646025999
396.6486053243399
358.343144455719
324.1847341156418
293.6662991671116
266.3516996566929
241.8644860113325
219.8786476662326
200.1109656091287
182.3146626131021
166.2741088007142
151.8003895889303
138.7275815569563
126.9096120018557
116.2176018159438
106.5376102631258
97.76871538466332
89.82137594174249
82.61603066116972
76.08189860871811
70.15595117684776
64.7820317905506
59.91010430259544
55.49561546692875
51.49896116819862
47.88505064803643
44.62296837115214
41.68574090651314
39.04589863599288
36.66999484039221
34.5225377068858
32.57002902790754
30.77884546995028
29.11222701816202
27.52636947773194
25.96687816188402
24.36923068891278
22.66819027119631
20.90786166323438
19.10554262884017
17.1680634549603
14.99089564447276
12.38769523670906
9.269530015816688
6.146155725871563
4.262186993889764
3.780428767041366
3.723481060230064
3.718435136576767
3.717945740783706
3.717805783775336
3.717683006216931
3.717553355802626
3.717414946016157
3.717267473335125
3.71711082506526
3.716944944106932
3.716769888791879
3.716585761339743
3.716392854441475
3.71619148443799
3.715981843074879
3.715767683823274
3.715548508447425
3.715323325685393
3.715092969778883
3.71485883361415
3.714622999595969
3.71438617372234
3.714160609581914
3.713954251569542
3.713770650656282
3.713615528601856
3.713497389303345
3.713426300477659
3.713420613838218
3.713489570906987
3.714943091735083
3.888879244810064
9.705263433813535
35.85167358511404
1142164.613669721
209370.7825601684
72962.21843717003
34986.78457456221
20121.71064242131
13021.27106542456
9169.56480002526
6881.707737951931
5417.729460138827
4415.39383830015
3685.9673021053
3127.828718341459
2684.643765634641
2323.598692436348
2023.458527071241
1769.895238717346
1553.442601743561
1367.434079659403
1206.907050731286
1067.99747643815
947.5829038228188
843.0258964109838
751.9154105885374
672.1614216033375
602.1026796200352
540.3759388045853
485.8394023182899
437.5316776447087
394.6392711428808
356.470737831494
322.4358996088623
292.0290263652105
264.8151414633527
240.4188095514232
218.5149101700341
198.8210096433755
181.0910264613807
165.1099488353219
150.6894122193841
137.6639828701632
125.8880235866439
115.2330415184833
105.5854367880296
96.84458574710041
88.92120479581322
81.73595048060025
75.21821956625581
69.30511933420416
63.94058383677817
59.07461650146461
54.66264359298781
50.66496686975933
47.0463076181999
43.77543854413184
40.8249054014093
38.17084784529598
35.78826642192197
33.6467248943036
31.71435786942264
29.96066801596836
28.35431506299516
26.8599534281155
25.43426753425506
24.02284943543318
22.56172590108064
20.9876084490531
19.35401468053009
17.65107305950653
15.78317621415518
13.62701670905839
10.93682501042047
7.726637200918018
4.933318241212111
3.756491416466513
3.565568534842409
3.548176723552753
3.546760133910519
3.546557645285498
3.546431975448818
3.546303214909011
3.546165988130605
3.546019821368163
3.545864596694316
3.545700254004294
3.545526845687031
3.545344472309254
3.545153416850933
3.544953995424841
3.544746405067902
3.544534110580752
3.544316735329364
3.544093434783327
3.543865065114726
3.543633021200171
3.54339938587889
3.543164956367731
3.542941197199643
3.542736223957793
3.542553921766073
3.542400028412092
3.542283196366779
3.542212708764544
3.542209684558467
3.542281093197156
3.544292523268175
3.783433968783665
10.25656752686637
35.82655913010912
1142164.474134083
209370.0423630104
72960.16228497971
34982.78544148718
20115.40571803744
13012.66798196527
9159.076787112879
6870.07555111176
5405.815692203077
4403.932634101246
3675.409283266178
3118.339389131728
2676.19414270784
2316.126467309331
2016.892413899508
1764.126416784568
1548.356129012812
1362.922665315352
1202.876804251185
1064.369167696543
944.291518118186
840.0208278924099
749.1631161101982
669.6359065303837
599.7789960077324
538.2326427338573
483.8578720570853
435.6955969800251
392.9342293110624
354.883919387235
320.9558407852459
290.6454210050678
263.5186841883786
239.2010671528628
217.3682146075683
197.7383677742937
180.0660428730189
164.1367590543226
149.7626242192249
136.7786252619825
125.0394992121877
114.4170853922879
104.7980774935859
96.08210948760879
88.18012134115351
81.01296024503648
74.51018098942404
68.60901561132265
63.25348783248379
58.39365235126719
53.98494299151147
49.98761727504913
46.3662884163905
43.08953936406494
40.12961779671591
37.46221667836132
35.06635342273742
32.91812729330714
30.98865605616938
29.24915759043987
27.6714994206258
26.22573822084581
24.87666162529564
23.57980966359451
22.27935522779794
20.91211329511883
19.42098432562622
17.87180515217793
16.2390908183937
14.39696880730484
12.15810473703751
9.271244317205491
6.061094873747499
3.981619624471248
3.458085721102875
3.40291998417267
3.398671284438668
3.398282120222953
3.39814608128354
3.398017882100888
3.397881995590823
3.39773733228102
3.397583736983135
3.39742114616231
3.397249607222792
3.3970692192869
3.396880257441102
3.396683036810118
3.396477758097828
3.39626764613093
3.396052420963026
3.395831357573573
3.395605329628935
3.395375729372218
3.395144633071709
3.394912908321061
3.394691351365874
3.394488186302732
3.39430755757025
3.394155152190661
3.39403991924455
3.393969946873908
3.393969838269256
3.394044588831456
3.396797890268008
3.71745020886587
10.79715813767105
35.7761882938585
1142164.354415463
209369.407462077
72958.39791144266
34979.35162361679
20109.98712451534
13005.26517695508
9150.037864121043
6860.032209933396
5395.509819546826
4394.001584108338
3666.249217154403
3110.099921936695
2668.854519369588
2309.635363243866
2011.189501688346
1759.11790319903
1543.942382913535
1359.010365191866
1199.384069172195
1061.226749448691
941.4424951159376
837.4208809232609
746.7830646590847
667.4532336507286
597.7720102621022
536.3827059790382
482.1488050233356
434.1132287432325
391.4660482337405
353.5188025785102
319.683841609755
289.4575998731599
262.4069718571461
238.1581526622461
216.3874520739272
196.8136977806982
179.1919252897254
163.3081149113496
148.9747848206619
136.0272871397204
124.3206838083943
113.7271025654823
104.13349208335
95.43971026122843
87.55689168955529
80.40604999795748
73.91687867852097
68.02672041675311
62.67968028739384
57.82586262200072
53.42071515313117
49.42446738506307
45.80165322452456
42.52071095825043
39.55365697746137
36.87583364659025
34.46573707609576
32.30490406743905
30.3699355748349
28.63277701755368
27.06699979884718
25.6459570592007
24.33999820255369
23.11266393153311
21.91678928260054
20.69331170262963
19.37558496771624
17.96116191464109
16.47735008647249
14.86157567123012
12.97607858826075
10.53234403048501
7.396802285795293
4.563790345229438
3.439199066797265
3.281565217330946
3.269200939510248
3.268284220714645
3.268118269301616
3.267989778361606
3.267855296382882
3.267712239366351
3.267560379629727
3.267399649149666
3.267230091102514
3.267051803236421
3.266865054050552
3.266670157276399
3.266467315980132
3.266259552218991
3.266046666275149
3.265828032751533
3.265604534520092
3.265377557319069
3.265149168783149
3.264920291014348
3.26470114279346
3.264500014691025
3.264321274590118
3.264170470550666
3.264057036745304
3.263987444802961
3.263990524718807
3.264069924012893
3.26780553608568
3.688502810691162
11.32515709454952
35.7138763732897
1142164.249712569
209368.8523605071
72956.85477710838
34976.34686141482
20105.24221516902
12998.77662178752
9142.106003654559
6851.207647842386
5386.444060601015
4385.259243568593
3658.185740250248
3102.853877685681
2662.413094296969
2303.939766723395
2006.177986139971
1754.713355304128
1540.05967781905
1355.568591819258
1196.31168356569
1058.462958458771
938.9371787506551
835.134970217277
744.6909378288078
665.5351748711442
596.0089747414046
534.7583235743086
480.648860130194
432.7252661841005
390.1790677264597
352.3230220003834
318.57051109144
288.4188537743818
261.435709183935
237.2479390251394
215.532438128156
196.0085504211148
178.4317688341251
162.5884801985052
148.2915646486694
135.3766968300477
123.6992259396395
113.1315351054405
103.5607992774192
94.88707572231056
87.02167318781214
79.88575547291066
73.40914299299057
67.52928234137629
62.19035914266026
57.34253390587197
52.94128433735226
48.94684086034098
45.32370510053006
42.04024406938453
39.06835601948506
36.38320794504129
33.96305031228637
31.78912343060627
29.842594827902
28.10007104044943
26.53608206363079
25.12592835739581
23.84352111931192
22.65816456536847
21.53050858762028
20.40953518357913
19.2345636354163
17.94669044945041
16.58207967218963
15.13412918417917
13.49336065852337
11.44996437664055
8.665557898740271
5.478553000325767
3.581025262291675
3.189460184575144
3.155397104934048
3.153072581296714
3.152826063942508
3.152694608288135
3.152561438055395
3.152420023502271
3.152269939890126
3.152111109971978
3.151943573297177
3.151767426214378
3.151582931577114
3.151390401501252
3.151190040316416
3.150984696262894
3.150774235403972
3.15055811557445
3.15033722745852
3.150112948333039
3.149887333082592
3.149661347263694
3.149444706834934
3.149245730758276
3.149068994531465
3.14891979879496
3.148808312431596
3.14873893731768
3.148745493086596
3.148831284229348
3.153867962430218
3.695256412120713
11.83976850816112
35.6457361918805
1142164.157075543
209368.3613453602
72955.48950060096
34973.68744671391
20101.04041810286
12993.02669134961
9135.071093658971
6843.374238865634
5378.39161591373
4377.494068859935
3651.030641042682
3096.438981805259
2656.732960847366
2298.919595248276
2001.748698090679
1750.814530830815
1536.619658090744
1352.517591316501
1193.587249380276
1056.011647866681
936.7147423684044
833.1068586720157
742.8346176949703
663.8333615027657
594.4448938227108
533.3175415497361
479.3188304839645
431.4949857118668
389.0388098195442
351.2641300099359
317.5852360468611
287.5002251367171
260.5774303866745
236.4443017770595
214.7782510649893
195.2990788583529
177.762683213732
161.955811427637
147.6916649643485
134.8062051374604
123.155036796923
112.6107706882925
103.060783769044
94.40531164914543
86.55581926607503
79.43360554876197
72.96860564987355
67.09836071006085
61.76713037195152
56.92512762355919
52.52785922425622
48.53555813064641
44.91269715135092
41.62757568837799
38.6519740545686
35.96087272697472
33.53223732898689
31.34687455620815
29.38837020872094
27.63719649414402
26.0696215745843
24.66223606219582
23.39137025101347
22.23048789324552
21.1465308952539
20.09607789900475
19.02417907138494
17.86920235215081
16.60820749568873
15.27028209202322
13.81061208703761
12.07440110443488
9.712489673954753
6.573058159930641
3.961863105136782
3.143755423550072
3.055934266361536
3.050032188869774
3.049582924265155
3.049442309697128
3.049310173852173
3.049170394603477
3.049022088737586
3.048865159107935
3.048699641734437
3.048525631502522
3.048343386337963
3.048153216670335
3.047955327233697
3.047752415379876
3.047544403505796
3.047330820454683
3.04711255934721
3.046890987093953
3.046668145146103
3.046445033313014
3.046230923737102
3.046034131302576
3.045859456119243
3.045711815746404
3.04560239418701
3.045533062205745
3.045543400479259
3.045637892881724
3.052400643908852
3.736969467481843
12.34066125119592
35.57464991329165
1142164.074266842
209367.9224630652
72954.26885316582
34971.30871159382
20097.27971564854
12987.87599114655
9128.762516851637
6836.340768591755
5371.152087833127
4370.504761243968
3644.584934264886
3090.657143329679
2651.612320422626
2294.393947160685
1997.756386223123
1747.30136795326
1533.521062526581
1349.770530330647
1191.135223622625
1053.806246834081
934.715846087837
831.2831461243795
741.1657673853382
662.3038370521317
593.0395736168791
532.0234189757193
478.1246041068126
430.3907472395541
388.0158034857882
350.3145657433955
316.7021427811982
286.6773340183299
259.8090804146335
235.7253624168185
214.104057845915
194.6653790097099
177.1655891618987
161.3917605278068
147.1573842317735
134.2986800304528
122.6714833086555
112.1486101513472
102.6176198804873
93.9789092943082
86.14408476547754
79.0345679738748
72.58039885663101
66.71920572200467
61.39531770197647
56.5589990540762
52.165788459769
48.17592958078533
44.55388188323133
41.26790328388871
38.28969870568776
35.59413141255074
33.1589974460183
30.96486833441276
28.99501491699894
27.23309837215434
25.65872580726073
24.24925959855758
22.98262544077997
21.83521809218769
20.77875665654218
19.77634506323705
18.77962626275836
17.73076671198802
16.57206369944641
15.33023665204858
14.00446167431596
12.48112139502381
10.49637159173998
7.659008872998095
4.602753958612578
3.179690355909047
2.971853581596838
2.957249722311146
2.956308596404963
2.956144182671399
2.956012401039786
2.955874220781049
2.955727679828323
2.95557263525933
2.955409118820239
2.955237223763294
2.955057203502228
2.954869366652577
2.954673917539475
2.954473420931362
2.954267846409295
2.954056783252348
2.953841126885261
2.953622233088058
2.953402127125148
2.953181836070983
2.952970241335665
2.952775615557271
2.952603019676066
2.952456829037215
2.952349573960377
2.952280104402478
2.952294542274886
2.952400757182517
2.961463653943305
3.813215191533195
12.82773558150035
35.50193800490823
1142163.999870725
209367.5282415856
72953.1721549855
34969.17070098391
20093.89771320709
12983.24045637125
9123.079414972912
6829.99744314824