/*--------------------------------*- C++ -*----------------------------------*\
| =========                 |                                                 |
| \\      /  F ield         | OpenFOAM: The Open Source CFD Toolbox           |
|  \\    /   O peration     | Version:  v1812                                 |
|   \\  /    A nd           | Web:      www.OpenFOAM.com                      |
|    \\/     M anipulation  |                                                 |
\*---------------------------------------------------------------------------*/
FoamFile
{
    version     2.0;
    format      ascii;
    class       volScalarField;
    location    "1792";
    object      omega;
}
// * * * * * * * * * * * * * * * * * * * * * * * * * * * * * * * * * * * * * //

dimensions      [0 0 -1 0 0 0 0];


internalField   nonuniform List<scalar> 
44064
(
1142164.412138374
209496.0189105064
73205.61951120802
35391.24118386526
20703.32865308808
13762.19688310992
10023.68832932826
7789.606593294223
6325.306049673803
5286.635844883651
4503.706661131017
3885.260977995096
3378.959086380527
2954.406365569292
2592.901653292452
2282.096849561715
2013.231419515431
1779.613951701358
1575.892602120297
1397.710696303339
1241.447673701013
1104.058927865649
982.9853555546583
876.1439607104387
781.6380161051343
697.7296725643386
623.0701924124057
556.5097905397216
497.0553715982725
443.8492078661547
396.1494708887662
353.3128874627056
314.7798635300109
280.0628642494108
248.7395482223939
220.452563107353
194.9165353505397
171.9269083969546
151.352896617382
133.0872862045079
116.9320965433888
102.7327594803779
90.39762858853244
79.75198330254368
70.5715602883291
62.62699860165946
55.70276824511025
49.60302225636345
44.15418194000118
39.21048540098697
34.66318351740941
30.44666207027456
26.53548627872741
22.93441712840019
19.66752466358282
16.76940173027599
14.2775921211761
12.22469383371918
10.62925011279074
9.48483178013589
8.747681875921788
8.331321683098077
8.127040183023265
8.039505008174174
8.006068612375994
7.994256249538894
7.990336413984078
7.989133961194492
7.988791854240191
7.98870097540358
7.988678083190369
7.988672190304941
7.988670249926823
7.988669121956889
7.988668083755543
7.98866697525719
7.988665761394177
7.988664435305517
7.988662998287073
7.988661455382012
7.988659814147105
7.98865808419977
7.988656277007895
7.988654405742019
7.988652485129756
7.988650531280133
7.988648561453618
7.988646593777918
7.98864464690748
7.988642739632346
7.988640890461853
7.988639117200857
7.98863743655485
7.988635863807397
7.988634412619692
7.988633095009948
7.988631921580431
7.988630902076983
7.98863004647889
7.988629366928814
7.988628879915489
7.988628605882031
7.988628567553638
7.988628919281478
7.988633930623316
7.989755507664218
8.244380593000791
23.75095829671453
1142168.747934934
209392.9756886962
73023.52210899263
35105.13563525309
20306.16537246397
13268.66119304003
9464.170589114741
7199.397357753634
5733.853995420766
4712.107848474647
3954.803620752969
3367.7613285354
2898.698525464109
2515.201461823284
2195.827519000743
1926.482687539903
1697.351431151184
1501.193304040109
1332.424829742591
1186.604342409568
1060.123650322418
950.0128370870417
853.8072192722695
769.4503254466017
695.2193568161242
629.6667142489122
571.5728735758536
519.9074264727527
473.7972421479221
432.5002277593006
395.3837116324198
361.9066755608112
331.6052239480516
304.0808040172781
278.9907744522988
256.0409376163686
234.9795776581207
215.5923918589488
197.6975823822194
181.1405920818436
165.7888762279609
151.5284881936085
138.2616756140589
125.9040883256564
114.3822979975606
103.6308559505134
93.58733599233703
84.18448033547357
75.35609257934841
67.20829412508832
59.95301617519487
53.55055677368176
47.86263545490728
42.78869699285893
38.16044856976195
33.7989640377366
29.6092056222004
25.56253093448478
21.68773485672594
18.05502604881496
14.7656400578179
11.94013736436461
9.699348695656303
8.136582346748513
7.257573134408813
6.890470762367872
6.774837908770602
6.744529270424624
6.737407731701969
6.735864444582306
6.735539433232536
6.735461988486203
6.735427835276013
6.735395288132003
6.735356500794013
6.735310094839807
6.735255751841639
6.735193352656649
6.735122857691359
6.735044288355073
6.734957728667073
6.734863332214982
6.734761330924544
6.734652044540803
6.734535890787827
6.734413395455888
6.734285202202143
6.734152081465108
6.734014938075702
6.733874817154032
6.733732907966962
6.733590545771009
6.733449211995991
6.733310533929393
6.733176286001425
6.733048396445261
6.732928965406375
6.732820304034909
6.732725009184564
6.732646098033519
6.732587250025279
6.732553242682265
6.732550184252525
6.732585918834241
6.732694295683121
6.738626699141398
7.484462506440754
29.20057949207825
1142167.393774413
209385.5607064
73003.0766803864
35065.65997707294
20244.72831510932
13186.67132638662
9367.416038787072
7096.272750911516
5632.285757608283
4617.102086207907
3868.024256147783
3288.609947380573
2825.604537392691
2446.637954959238
2130.522717643739
1863.373920748666
1635.708256805113
1440.647916616176
1272.94807855715
1128.42721921375
1003.556023114627
895.1655877694942
800.6228786564421
717.8665484990893
645.192387639358
581.1817328526317
524.6464162270395
474.5856194008955
430.1519967640319
390.624751373906
355.3880950407536
323.9139191211847
295.7477932143088
270.4976242831348
247.8244710509461
227.4351341692599
209.076243780803
192.5296533418784
177.6090327298656
164.1439515042571
151.9442110769554
140.8201684335718
130.6154034092003
121.1985830493511
112.457674507792
104.2959558803709
96.62931957553485
89.38479925053207
82.50094769878294
75.93101532778499
69.64394176065515
63.61808188466524
57.83178348486916
52.26301487045495
47.07693066815408
42.43224109503993
38.21633950771399
34.30479746242254
30.59911480633072
26.96300973343373
23.31631351515622
19.67019239349463
16.10605770940985
12.78040212585864
9.922074360492211
7.7823564791763
6.532042803474
6.043072785207059
5.916045636096323
5.890228285270981
5.885581659622727
5.884784865463432
5.88462513786261
5.884558737047101
5.884499605727972
5.884435043854793
5.884363154963093
5.88428347333572
5.884195740372996
5.884099758137779
5.883995374900898
5.88388249100826
5.883761069506763
5.883631149030387
5.883492858738995
5.883346435284214
5.883192241645181
5.883030787790283
5.882862753011
5.88268900982522
5.882510649345621
5.882329008001149
5.882145696380496
5.881962629983202
5.881782064667835
5.881606638791272
5.881439427632666
5.881284018484327
5.881144618956811
5.88102621456497
5.880934813976356
5.880877830139562
5.880864935893348
5.880906896318351
5.881070845510353
5.895758739076675
7.298537149634602
31.85006514170885
1142166.518477855
209380.905967203
72990.25286979809
35041.04176542558
20206.64225858425
13136.03808296782
9307.749969407449
7032.761030525439
5570.119438961015
4559.972748366649
3817.637939620763
3245.132097365746
2788.380744118279
2414.854939761631
2103.338730678599
1839.88430472625
1615.055283002436
1422.065527717946
1255.778175682555
1112.14200201236
987.8291714172111
879.924585407845
785.8345184457262
703.4387459410639
631.0497272656379
567.2638326678035
510.9063912517872
460.9887789798834
416.6746382816301
377.2530287243595
342.1169018502284
310.7457253339739
282.6913681959774
257.5665683372325
235.0354581246572
214.8057387731602
196.622180214209
180.2611870149793
165.5262170896353
152.2438705661514
140.2605942963766
129.4402381286074
119.6624277363539
110.8215027676285
102.8260638158899
95.59927717514068
89.04338518617972
83.04517237228167
77.50912894013047
72.35336620272392
67.5068595946896
62.90754171134357
58.50105740851841
54.24095969795415
50.09148588002711
46.02106925685281
41.98672656951646
38.09755339070116
34.54898901037867
31.25784912082467
28.08057626213467
24.92881575554457
21.70152094178877
18.34700607600821
14.91938031412767
11.59363419014525
8.693177308813141
6.627576348149224
5.622096824455758
5.335592135335545
5.281571050816092
5.273134488682227
5.271898180695371
5.271677862836452
5.271583745464772
5.271497905862086
5.271405771824783
5.27130548781129
5.271196654585519
5.271079068478736
5.270952594216975
5.270817159736683
5.270672765956125
5.270519499633532
5.27035754802578
5.270187215273202
5.270008940336302
5.269823316530603
5.269631112689765
5.269433296104676
5.269231057542624
5.269025838782943
5.268819364001049
5.268613675773876
5.268411179114557
5.268214696609161
5.268027540928085
5.267853614266489
5.267697550344701
5.267564914290956
5.26746241960439
5.267398489467782
5.26738473143795
5.267436124884854
5.26770047502888
5.297009647274936
7.468665969588619
33.53982377600848
1142165.944119838
209377.8495085017
72981.8062856012
35024.74815393215
20181.25870528531
13101.96275995737
9267.070004442927
6988.742216910703
5526.192778784822
4518.735526664077
3780.438315751398
3212.270866022325
2759.548774466893
2389.678388200954
2081.448726446027
1820.819527503677
1598.352571326344
1407.297411419905
1242.565132566203
1100.158046311916
976.8198839357545
869.7613943257799
776.4327149851662
694.6954907061539
622.8752017695588
559.5790063695198
503.6412727234614
454.0811223620938
410.0689416154041
370.8997696962483
335.9719501977874
304.7698863768347
276.8500234485064
251.8293883341828
229.3761704463881
209.2019418286963
191.055201894384
174.7159986241087
159.9914297170942
146.7118677267119
134.7277830419249
123.907054431393
114.1326731479216
105.3007724104758
97.31892475965257
90.10463954270041
83.58396939265147
77.69082563628623
72.367370315275
67.55913286559669
63.19533414907109
59.19604594334257
55.49048257516152
52.01499720507538
48.7117072902336
45.52705199193304
42.41070380634939
39.31860477925203
36.2087504427864
33.07723852961722
30.13092324313763
27.36810340935737
24.62791928908526
21.82283067670678
18.86481537470327
15.68984967537251
12.37012408619836
9.184033309611012
6.65583405014868
5.290989695149335
4.889635040128986
4.820282411058542
4.810849837954737
4.80964168429819
4.809431359203391
4.809325633205304
4.809223109537846
4.809112962867072
4.808993914670275
4.808865650064797
4.808727992235737
4.808580836954461
4.808424158752275
4.808258025314636
4.808082614367144
4.807898232598735
4.807705336348932
4.807504554047632
4.807296710329937
4.807082851858179
4.80686427505263
4.806642556088691
4.806419584382614
4.80619760056311
4.805979242422946
4.8057676026176
4.805566304989613
4.805379609709361
4.805212567328711
4.805071254463667
4.804963009766041
4.804896920368352
4.804885290662162
4.804947506803614
4.805378257479984
4.856400522334375
7.843340701018584
34.69853895093628
1142165.536221528
209375.6806242173
72975.80267827146
35013.13733399202
20163.10329104129
13077.46636773049
9237.632206540853
6956.635513625723
5493.875104563334
4488.131164044895
3752.59760595317
3187.475014855878
2737.610392201053
2370.358829249774
2064.511700074245
1805.952484484447
1585.239119702603
1395.648132962501
1232.128240017463
1090.721808206381
968.2169195451984
861.8849592415112
769.2041092967039
688.0379165435446
616.7222082359197
553.8726174738258
498.3303284558525
449.1200422731458
405.4167769412215
366.5194799377984
331.8298474730565
300.8352066135271
273.0945945438137
248.227373282443
225.9038689935587
205.8376380511707
187.7790476253723
171.5099240998503
156.8390732458352
143.5985154253405
131.6403099048135
120.8338666337392
111.063663257486
102.2273010560598
94.23384672386564
87.00241830017679
80.46098447734278
74.54534009562397
69.19820398591224
64.36838875459144
60.01015497723914
56.08353823623786
52.53990151017496
49.31799926431336
46.3572830182139
43.60086508691638
40.99380508290302
38.48156616155836
36.00884694613403
33.52146474092139
30.97225293818845
28.38842817612762
25.92741817472531
23.51931446613577
21.04100868075823
18.41298817330615
15.51573019838576
12.3327310279354
9.085807053439741
6.376884979558192
4.913333185558383
4.516055570782597
4.456242809776564
4.449178791603559
4.448358161404985
4.448190226401101
4.44807789979586
4.447962473969372
4.447838403443488
4.447705009918786
4.447562072818429
4.447409468196923
4.447247152598657
4.44707517619451
4.446893700110223
4.446703016142682
4.446503568550868
4.44629597796269
4.446081067385991
4.445859890441954
4.445633762077746
4.445404292178478
4.445173423292906
4.444943473533087
4.444717187995008
4.444497802597411
4.444289127274679
4.44409565717696
4.443922728583242
4.443776775671081
4.443665630296061
4.443598915001169
4.443588709159072
4.443658123822209
4.444326082491938
4.52490956028111
8.322671171732582
35.4040855741386
1142165.227834372
209374.0422954982
72971.26310679632
35004.34351534957
20149.31952377216
13058.80646261277
9215.111922303135
6931.949638504346
5468.896124780355
4464.361418576062
3730.886828767071
3168.07689309547
2720.403334090768
2355.174466314582
2051.178858522825
1794.235760434671
1574.897913546338
1386.462033751201
1223.906451568461
1083.304197147544
961.4724397363823
855.7120429653824
763.5369101247147
682.8253097662453
611.9137374572965
549.4245397504119
494.2043067496173
445.2821547529408
401.836747556075
363.1700804127717
328.6864271720725
297.875318773812
270.2976959719264
245.5745808252725
223.3777605973288
203.4220894566404
185.4590980612828
169.2716659848427
154.6695620829687
141.4856969226168
129.5729620103106
118.8015547204828
109.0567069918956
100.2367511867318
92.25146883665312
85.02067800528015
78.47302317084602
72.5449382098388
67.17975922575711
62.32697137795415
57.94157897307501
53.98357060506226
50.41741043868831
47.21182459234059
44.32461166779734
41.70318056904486
39.29728719186766
37.05718547929047
34.93150371975987
32.86520363366023
30.79920034951845
28.67588762293718
26.44396004145072
24.24405946649535
22.09999701186801
19.87770279055043
17.48259313168606
14.79024630347859
11.72197011288309
8.480629386638197
5.795069668549202
4.48994374543878
4.198674613151346
4.162076524745822
4.158290124500976
4.157851976923399
4.157714856912351
4.157595140695563
4.157468353488237
4.157332345775284
4.157186785852587
4.157031536130726
4.156866546445874
4.156691861317247
4.156507637074045
4.156314161770681
4.15611187727351
4.155901403543857
4.155683565145076
4.155459420134601
4.155230291668146
4.154997802835693
4.154763916015349
4.154530977996912
4.154301774206127
4.154079596114126
4.153868329494088
4.153672572285044
4.153497788572443
4.153350558763732
4.153238981486346
4.153173201430381
4.153164509240729
4.153238645858742
4.154229115786538
4.27324375726795
8.849086187389865
35.74865471160643
1142164.984347984
209372.7495432474
72967.6782439479
34997.39023943301
20138.40038687776
13043.98681791084
9197.167888842976
6912.205081121756
5448.838476404987
4445.207136443514
3713.34286508557
3152.370660836755
2706.452439911629
2342.853443144058
2040.356200445559
1784.724662553783
1566.505422878227
1379.010294124738
1217.241067926442
1077.295515594095
956.0143373902648
850.7221120288981
758.9609143886291
678.6210656670694
608.0402787419681
545.8464993142941
490.8908276662235
442.2060643087866
398.9739161113284
360.4989225430405
326.1875083204939
295.5310408556074
268.0920426162223
243.4929081894017
221.4066234964604
201.5490953059493
183.6727831174697
167.5613898096168
153.0254171847648
139.8984312717544
128.0339126401487
117.3025909719606
107.5901821705592
98.79546150984113
90.82861856317257
83.60984957196553
77.06815104859565
71.14028519464534
65.76989350050795
60.90673997675559
56.50607018547817
52.52807716766101
48.93747307106655
45.70315873186882
42.79795870705735
40.18896499088378
37.8343823898766
35.69092231312703
33.71475948908014
31.85909939504026
30.07143180293047
28.29192346013047
26.45667634179377
24.51339617084154
22.54759595095039
20.60039904479151
18.56189764044322
16.32661130219696
13.74956556069657
10.72040833283845
7.499803616563186
5.043836675328322
4.095627782174605
3.937018317280758
3.920507388079658
3.918956311660347
3.918729633534651
3.918602249089679
3.918473859115005
3.91833670539985
3.918190070990813
3.918033790068279
3.917867806695801
3.917692161135619
3.917507005867753
3.917312625604717
3.91710945961134
3.916898126277617
3.916679449986545
3.916454490434245
3.916224574750268
3.915991332956964
3.91575673806357
3.91552315215742
3.915293381775199
3.9150707465257
3.914859169154384
3.914663299252321
3.914488668546526
3.914341902305421
3.914231191787736
3.914167272729633
3.9141605422428
3.914238204152786
3.915653805349346
4.083252440181802
9.392218744640353
35.87183597776539
1142164.786254944
209371.698209729
72964.76088887776
34991.72566646468
20129.49139233538
13031.87031372086
9182.458220876928
6895.969893276344
5432.293946074758
4429.363395940333
3698.799705219741
3139.331852567273
2694.860495045276
2332.611268274822
2031.358921743703
1776.819317458124
1559.532679524202
1372.822588732285
1211.709913508479
1072.312819995298
951.4915486239781
846.5904089622953
755.1748748241241
675.1454139072099
604.8409220222719
542.894059659105
488.1597255881939
439.6738237837592
396.6206255371847
358.3068157710967
324.1406345575006
293.6150009070212
266.2937750772886
241.8005135966457
219.8092176821662
200.0366855244966
182.2361621882311
166.1920447397369
151.7154496143624
138.6404877202316
126.8211229897321
116.1285139479206
106.4487567962919
97.68096364598101
89.73562168865776
82.53318892296645
76.00289007405584
70.08168295457695
64.71337106211423
59.84784297803538
55.44042341996134
51.45132491031715
47.84519324375508
44.59074454946624
41.66049858852478
39.03059465290962
36.67237909140161
34.54973377295644
32.62516099862771
30.85993206124845
29.21137585452364
27.62973211175615
26.05625291252288
24.42695566646481
22.68683128509516
20.90457653676062
19.10696707592946
17.19419933483469
15.05362332318884
12.49894050151954
9.423461962136466
6.285208969351114
4.317399858212468
3.788588382661166
3.72440028938649
3.718692261362411
3.71814570366282
3.717995506597693
3.717865383405624
3.717727945868003
3.71758119194005
3.717424876180128
3.71725893545297
3.717083406543377
3.71689843835688
3.716704311747933
3.71650146189829
3.716290503012075
3.716072255368382
3.715847774906943
3.715618385701963
3.715385715889129
3.715151738321973
3.714918817403579
3.714689765389188
3.714467911840305
3.714257193656076
3.714062282900532
3.713888754162279
3.713743245486586
3.713633897516674
3.713572064190432
3.713567535089386
3.713647999519578
3.715608464143809
3.943384493879357
9.936976413830749
35.88567589357569
1142164.621419181
209370.8236532875
72962.33270438039
34987.00672809227
20122.06023526961
13021.74636318795
9170.140755670865
6882.340593785429
5418.368811798205
4415.997218530011
3686.509047294082
3128.299781708475
2685.046180215927
2323.937513648096
2023.739884264254
1770.126920502147
1553.632555572655
1367.589772905069
1207.035280495583
1068.10437638049
947.6738308530764
843.1047406049249
751.9826278521178
672.2166832086477
602.1468098191642
540.4096926947361
485.8634728759296
437.5467032549925
394.6458439766459
356.4694115474054
322.4271963926132
292.0134433675221
264.7931567244505
240.390887495929
218.4815067365376
198.7825770868698
181.0480178385516
165.0628221535852
150.6386342001025
137.6100322435393
125.8313937987083
115.1742426874219
105.5249966954271
96.78304958663855
88.85913332372849
81.67391611391484
75.15679984971723
69.24488703583619
63.8820927220665
59.01838155908756
54.60911411372367
50.61449027382917
46.99908122121804
43.73144545707691
40.78382924782494
38.13195836280948
35.75491620678935
33.62596105973665
31.71181464547588
29.97925246512972
28.39325019322527
26.91397002839265
25.49334582418174
24.07335147775143
22.59053635388406
20.99063780724562
19.34587806009679
17.65306141468274
15.81283298981878
13.69858713109682
11.06415874631435
7.887501491084367
5.042618606748737
3.782670008420381
3.568415305510409
3.548606098310195
3.546997511967711
3.546775139916485
3.546640766664277
3.546503440746974
3.546357147114004
3.546201406155923
3.546036140648046
3.545861384532828
3.545677283844245
3.545484115896351
3.545282311577197
3.545072480015665
3.544855435641214
3.544632227827169
3.544404173483146
3.544172893185389
3.543940352105047
3.543708907225603
3.543481364261936
3.543261047985696
3.543051891283257
3.542858562628718
3.542686655386382
3.542542818729579
3.542435020358306
3.542375151447696
3.542372951143762
3.542455897767984
3.545102912684607
3.846288868704765
10.47634191546916
35.85003461478362
1142164.481517572
209370.0816125024
72960.27147640684
34982.99796388471
20115.74070674989
13013.12442439957
9159.63145331652
6870.687143555908
5406.4361284589
4404.520962172958
3675.940406756766
3118.804183814545
2676.594299900125
2316.466596014491
2017.178169896585
1764.365142363684
1548.555349926551
1363.089441801048
1203.017519814557
1064.489520239986
944.3964300488772
840.1138815027415
749.2449244662303
669.70637684823
599.8389751446557
538.2828914658747
483.8990761055603
435.7283770456344
392.9591508172117
354.901500877524
320.9665611946611
290.6497260070466
263.5169918018435
239.1937727624983
217.3556955150457
197.7209873637075
180.0441544425354
164.1107093377896
149.7327565953023
136.7452826227247
125.0030264364817
114.3778313404871
104.7563964064496
96.0383616333928
88.13467270732799
80.96618101310166
74.46244245964151
68.56068515520646
63.20492134016715
58.34518350335405
53.93686851545277
49.94017714033588
46.31963968120196
43.04372212035487
40.08451140921193
37.41748438286093
35.02137339772179
32.87596631672391
30.95542205199518
29.22958890758712
27.66819916024237
26.23843011951005
24.90157015526141
23.60947068273616
22.30357984956879
20.92158172876447
19.41446602319322
17.8631929246429
16.24606201713678
14.4353475211027
12.24665247577302
9.418647626394208
6.212704689165739
4.044668569873846
3.466777675066501
3.403837725334112
3.398960152169308
3.398520763963917
3.398373800238552
3.398236461068219
3.398090965114257
3.39793616987331
3.397771962878593
3.397598374830984
3.397415549289736
3.397223760245049
3.397023434219576
3.396815174823857
3.396599789724347
3.396378320219394
3.396152073796027
3.395922660275529
3.395692032792372
3.3954625350788
3.395236958540312
3.395018613464674
3.394811417442353
3.394620016470271
3.394449997009861
3.394308036205392
3.394201847491291
3.394143669904359
3.3941439355804
3.394229521851449
3.397738198076771
3.787426834617477
11.00729290937269
35.79215237593151
1142164.36074379
209369.4412102794
72958.49186200344
34979.53469400035
20110.2761132761
13005.65961629531
9150.518107200496
6860.562825874445
5396.049184141745
4394.513932001245
3666.712398445851
3110.505714151702
2669.204233940743
2309.933006250226
2011.440073614363
1759.327878513858
1544.118391488017
1359.158617314403
1199.510165271103
1061.335669602317
941.5385203858641
837.5071023079498
746.8599636898247
667.5206787844176
597.8307000494495
536.4332655678046
482.1917952912598
434.1491546102044
391.4953667315228
353.5419297377489
319.7011583600782
289.4694571364207
262.4136949984599
238.1600454368383
216.3848001773884
196.8067720813575
179.1809847963407
163.2934095072795
148.9565577762567
136.0057773968435
124.2961280135791
113.6997368102305
104.1035532904118
95.40743713338884
87.5225251114543
80.36983275071697
73.8790542903496
67.98753092912655
62.6393626648655
57.78464347357293
53.37880336465363
49.38204418739794
45.75885914676662
42.47762905086886
39.51029165944572
36.8320845727588
34.42136759208327
32.2595383249467
30.32602372545572
28.59513623694324
27.03950702662922
25.63084244783578
24.33714521621541
23.11903095449317
21.92628502623196
20.69804353216186
19.37017152827327
17.94842917993816
16.47167987352605
14.8783639165679
13.02993728627655
10.64627960761886
7.557917013371219
4.673769223391147
3.462613276540745
3.283848816712113
3.269595368771657
3.268541808893494
3.268359194540722
3.268220814608885
3.268076275960732
3.267922648984167
3.267759730508718
3.267587545780552
3.267406235987854
3.267216071843919
3.267017475358639
3.266811044222999
3.266597578622133
3.266378110668088
3.266153936826315
3.265926653959009
3.265698200232896
3.265470902312775
3.265247532171279
3.265031378941087
3.264826338399387
3.264637023285869
3.26446898625812
3.264328955681065
3.264224364395519
3.264167521186956
3.264170425616208
3.26425929553444
3.268855818407822
3.764180118406487
11.52864691771178
35.72418176861036
1142164.254900348
209368.8801332213
72956.93217428768
34976.49787182163
20105.48091509708
12999.10282947137
9142.503571176174
6851.647133433858
5386.890604980807
4385.68265046233
3658.567113047256
3103.186025428354
2662.696885478259
2304.179973307108
2006.379855354327
1754.882129227382
1540.200888992635
1355.687478435811
1196.412994497059
1058.550928009173
939.0154424071015
835.2061099107979
744.7551884105177
665.5922463007992
596.0593603662697
534.8024682372112
480.6871646738204
432.7580920868403
390.206742144192
352.34584217921
318.5887482156144
288.4327563315401
261.4455059387816
237.2538416848499
215.5346437668224
196.0072437128856
178.4271241281349
162.5806634538243
148.2807352342113
135.3630091818654
123.6828310555574
113.1125818435899
103.5394354099434
94.86344867714942
86.99593038853668
79.85804415712546
73.37960935096865
67.49806976413052
62.15760529600664
57.30836624368722
52.90581351568314
48.91015128448498
45.28584147705205
42.00119224861563
39.02801542202251
36.341351120464
33.91926198178361
31.74270526113744
29.79497830939531
28.05479205306391
26.49643866447071
25.09452454748941
23.82172957983892
22.64557567219643
21.52451695295048
20.40543712781634
19.22712567360855
17.93423192569454
16.57059683235941
15.13549649443755
13.52201677973172
11.52826638649281
8.809951673441054
5.625876567818058
3.632814431322827
3.195343817393318
3.156050381296416
3.153353181646303
3.153075661637759
3.152933262455458
3.152789664334846
3.152637332557196
3.152475836954522
3.152305191402411
3.152125534576709
3.151937133906887
3.151740406756077
3.15153594458699
3.151324539574532
3.151107213837633
3.150885251668699
3.150660235384855
3.150434086072473
3.150209110642987
3.149988058091774
3.149774191267573
3.149571379617949
3.149384198638635
3.149218139904186
3.149079999862266
3.148976963311779
3.148921062599001
3.148926830647729
3.149020135347239
3.155005122055644
3.775249605415038
12.04046986670905
35.65156234328834
1142164.160889575
209368.3818864225
72955.54681830869
34973.79945250585
20101.21772447158
12993.26928021445
9135.36693201544
6843.701176985802
5378.723255362173
4377.807411786239
3651.311232139998
3096.681314555827
2656.937721824497
2299.090459180421
2001.889952400525
1750.930600626549
1536.715092600961
1352.596661454465
1193.653826406106
1056.069199537294
936.7662533138152
833.1543951409162
742.8780996598753
663.8722663281137
594.4794746919425
533.3480346849974
479.3454535248473
431.5179376483646
389.0582722971099
351.2802687780403
317.5982024144066
287.5101573721087
260.5844550487905
236.4485349840889
214.7797997131301
195.2980418002351
177.7591524014515
161.9498730192909
147.6834003867045
134.7956920907975
123.1423501809238
112.5959834197513
103.043967452564
94.38653705035605
86.53515652254389
79.41112403585039
72.94437339641848
67.07244323077022
61.73958874872645
56.89601562566747
52.4972192075203
48.50341540149853
44.87905243268384
41.59239530726006
38.6151775527706
35.92231793103977
33.49170388241959
31.30404941682377
29.34284487992505
27.59045165978108
26.02480232916193
24.62209595230218
23.35792749662987
22.20464282907282
21.12768464588099
20.08190850860262
19.01112512236867
17.85497000790857
16.59259799492123
15.26245277918259
13.82322921518708
12.1227376016753
9.825512024319524
6.732548871253107
4.052518584043696
3.158097569360344
3.05723576166654
3.050355902886081
3.049838504174635
3.049684683526062
3.049541750605498
3.049390774010761
3.049230774850584
3.049061741622453
3.048883809979233
3.048697244033267
3.048502456399642
3.048300032098757
3.048090754932481
3.047875636475433
3.047655948059792
3.047433256366705
3.047209463914477
3.046986855976242
3.046768156242473
3.046556597362999
3.046356018378385
3.046170958950893
3.046006824597415
3.045870480970059
3.045768955555514
3.045713606499181
3.045722530974518
3.045821982839731
3.053604459826142
3.820694158982242
12.54589493978547
35.57422281585896
1142164.076786275
209367.9361978956
72954.30727341585
34971.38399529529
20097.39917134298
12988.03967297723
9128.962159882327
6836.561004814672
5371.374481469507
4370.713186607662
3644.769264225872
3090.813588944902
2651.741476279561
2294.498479348784
1997.83966472515
1747.367020235499
1533.572681815107
1349.811446473595
1191.168450655594
1053.834499334729
934.7414657219972
831.3076912598322
741.188864598324
662.3247531032656
593.058334503365
532.0400637983145
478.1391776913464
430.403296262117
388.0263740465882
350.3232020368288
316.7088863030992
286.6822231182089
259.8121500834071
235.726644246551
214.1035801219719
194.6631669074821
177.1616650256857
161.3861442113937
147.1500934800638
134.2897308798597
122.6608904809883
112.1363874115129
102.6037803222827
93.96346551045514
86.12704884731255
79.0159512719287
72.56021141458007
66.69745527148703
61.37200807204493
56.53412780273496
52.1393434699084
48.14788426842522
44.52418852399396
41.23648374013973
38.25643146610826
35.55883320383043
33.12139645450841
30.92456363125625
28.95141145979859
27.18704736905297
25.61255344193653
24.20524148736894
22.94272866138854
21.80080084051708
20.75026105877485
19.75305667709506
18.75970289545747
17.71213031203773
16.55460929906122
15.31778319839752
14.00543421676039
12.50844640406065
10.57700900968446
7.808279725675773
4.730636609815358
3.210866414029296
2.974689575224192
2.957667618423523
2.956569852131431
2.956387288557759
2.956244258280455
2.956094640665987
2.955936172260854
2.955768784658649
2.955592609250838
2.95540790676034
2.955215084968092
2.955014722292285
2.954807593902988
2.954594700444276
2.954377299740919
2.954156942087941
2.953935510389073
2.953715266911207
2.953498908588936
2.953289635143974
2.953091250730726
2.952908264271065
2.952745975887686
2.952611299913272
2.952511252932482
2.952456081883525
2.952468527071507
2.952576513872244
2.962725882157202
3.901371013950261
13.04476035030247
35.49273579399435
1142164.000879922
209367.5339956738
72953.18838485841
34969.20276679589
20093.94889382346
12983.31070480345
9123.164720740104