/*--------------------------------*- C++ -*----------------------------------*\
| =========                 |                                                 |
| \\      /  F ield         | OpenFOAM: The Open Source CFD Toolbox           |
|  \\    /   O peration     | Version:  v1812                                 |
|   \\  /    A nd           | Web:      www.OpenFOAM.com                      |
|    \\/     M anipulation  |                                                 |
\*---------------------------------------------------------------------------*/
FoamFile
{
    version     2.0;
    format      ascii;
    class       volScalarField;
    location    "5702";
    object      p;
}
// * * * * * * * * * * * * * * * * * * * * * * * * * * * * * * * * * * * * * //

dimensions      [0 2 -2 0 0 0 0];


internalField   nonuniform List<scalar> 
44064
(
0.06146149324889472
0.06146128319826367
0.06146106489242188
0.06146085954366001
0.06146067448824436
0.06146053433232677
0.06146047344887083
0.06146052091822349
0.06146068936338839
0.06146096999052163
0.06146132490472606
0.06146171433231307
0.06146214109454138
0.06146262158486701
0.0614631541490574
0.06146373236184891
0.06146434916482774
0.0614649972358175
0.06146567075955329
0.06146636424493149
0.06146707085599927
0.06146778298856621
0.06146849255256844
0.06146919095190349
0.06146986901801419
0.06147051691522556
0.06147112402037076
0.06147167881256604
0.06147216877989464
0.06147258033242951
0.06147289870486821
0.06147310782766717
0.06147319014013913
0.06147312633000679
0.06147289504917808
0.06147247282811092
0.06147183473080911
0.06147095673809748
0.06146982117112001
0.06146842513002468
0.06146678322387773
0.06146489375458096
0.06146263890237422
0.06145975401762444
0.06145607234166696
0.06145167901238757
0.06144666902503405
0.0614410401168024
0.06143478285327861
0.06142789096260552
0.06142035167716298
0.06141214086524141
0.06140322057799799
0.06139353202551186
0.06138297942601753
0.0613714401767709
0.061358741824926
0.06134477577585624
0.06133064123128145
0.06131778340332398
0.06130530157287967
0.06129098999660015
0.06127373119020288
0.06125373750783878
0.06123168599330572
0.06120836604639311
0.06118418464251926
0.06115831860966997
0.06112981881949207
0.06109878850750969
0.06106551852812783
0.06102975962925661
0.06099122839228441
0.06094978508108404
0.06090528387414951
0.060857549561393
0.06080641411521756
0.06075171524597622
0.06069329641682367
0.06063101179703863
0.06056473020424056
0.06049433917425808
0.06041975031933236
0.06034090548637631
0.06025778369915437
0.06017040920078624
0.06007886039635933
0.05998327679986232
0.05988390408264205
0.05978092701969476
0.05967449958247759
0.05956507205709632
0.05945331615646905
0.05934006795426295
0.05922637601689915
0.0591133768152837
0.05900366354750002
0.05890157876106609
0.05881091357970177
0.05873531300417784
0.05867930593854351
0.05864854519623325
0.05865017476310892
0.0586934275668053
0.05879065716743141
0.05895966318765498
0.05922035702773794
0.05950780671314896
0.05551114143995647
0.0555111567701266
0.05551117368572605
0.05551118986767075
0.05551120634766207
0.05551122463184617
0.05551124674221362
0.05551127539224116
0.05551131364084538
0.05551136435111869
0.05551142996788459
0.05551151281640646
0.05551161421071552
0.05551173499744387
0.05551187812086317
0.05551204759065879
0.05551224686050494
0.05551247932827597
0.05551274863818133
0.05551305866183977
0.05551341346872429
0.05551381715408708
0.05551427348705771
0.05551478630672618
0.05551536011836296
0.05551599987754727
0.05551671081640783
0.05551749845895625
0.05551836865778099
0.05551932762147858
0.0555203819440706
0.05552153864501119
0.05552280522659828
0.05552418975923646
0.05552570100803024
0.05552734860762812
0.05552914326274729
0.05553109688663369
0.05553322245608147
0.05553553299460741
0.05553803835444966
0.05554074005833721
0.05554363442443445
0.05554673040675169
0.05555006326878984
0.05555367336257294
0.05555759883194076
0.05556187833893386
0.05556654613697301
0.05557165492176896
0.05557728874836258
0.05558354258554363
0.05559042608934856
0.05559769682381752
0.05560513833899292
0.05561302111990412
0.05562181342138951
0.05563160491902129
0.05564100293943498
0.05564841748375473
0.05565495395153728
0.05566293481264029
0.05567326853416005
0.05568456348536256
0.05569645136376362
0.05570946183017334
0.05572319577585313
0.05573760382867326
0.0557530833433162
0.05576991583144445
0.05578802461073656
0.05580732477374743
0.05582791617266585
0.05584987625096677
0.05587323716292956
0.05589801931246213
0.0559242421593321
0.05595191026818859
0.05598101023644784
0.05601150972915714
0.05604335441039794
0.05607646520222721
0.05611073610741508
0.05614603233976814
0.05618218911525426
0.05621901173255957
0.05625627844342094
0.05629373046101693
0.05633112739143284
0.05636827826641291
0.0564050393460297
0.05644129373348677
0.05647689011032252
0.05651172107742446
0.05654586632392105
0.05657928651845726
0.05661123368089111
0.05664018572766664
0.05666486590867809
0.05668485396586458
0.0566999550255632
0.05670969169134542
0.05671306981466594
0.05670798658904206
0.05668952691347474
0.05665018299351839
0.05659956579627098
0.05646123836807531
0.05411924137000572
0.0541192469236806
0.05411925319056481
0.05411925933239976
0.05411926559828899
0.05411927234290109
0.05411928002757645
0.05411928930062251
0.05411930094831282
0.05411931577748151
0.05411933450694344
0.05411935770310439
0.0541193856678099
0.05411941861786267
0.05411945734883837
0.05411950313881948
0.05411955718761591
0.05411962067731751
0.05411969493612834
0.05411978144612594
0.05411988147958917
0.05411999520079686
0.05412012205586562
0.0541202632865859
0.05412042172188627
0.05412059979318104
0.05412079979256165
0.05412102431320191
0.05412127630644189
0.05412155906852627
0.05412187624451791
0.05412223183489272
0.05412263019048343
0.05412307598883069
0.05412357417950142
0.05412412988299341
0.05412474828829083
0.05412543472756685
0.05412619461592821
0.05412703007629404
0.05412793088591884
0.05412888090967539
0.0541298791087591
0.05413093589558748
0.05413205831435587
0.05413324453769737
0.05413447401427587
0.05413570885857122
0.05413690374277635
0.05413801692755622
0.05413903426764583
0.05413996376630392
0.05414078184636007
0.05414144991876772
0.05414202519727136
0.05414263104305571
0.05414330816665289
0.05414389369525839
0.05414405841217804
0.05414372752781216
0.05414323773220371
0.05414281568681849
0.05414262772223005
0.05414358538054327
0.054145197733767
0.05414610105276028
0.05414601066692398
0.05414605497778773
0.05414688219872349
0.0541478035218428
0.05414864219466479
0.05414958665667996
0.05415073473626619
0.0541520992778995
0.05415370421265048
0.0541556021133707
0.05415785447831684
0.05416052828652138
0.05416370139765805
0.05416746351264683
0.05417191634482267
0.05417717481332218
0.0541833675772173
0.05419063685587323
0.05419913766882391
0.0542090355518447
0.05422050963840699
0.05423373018668316
0.05424885294951386
0.05426611804488798
0.05428577944220177
0.05430792901132564
0.05433252224987357
0.05435940828876097
0.05438839880093771
0.05441927669392387
0.05445132945374262
0.05448332564682802
0.05451432415537254
0.0545436194742254
0.05457010554824335
0.05459244546728168
0.05460929880292615
0.05461973447981196
0.05462275376202303
0.05461321373486437
0.05462983160981115
0.05441880318958853
0.05319933403413625
0.05319933781416047
0.05319934209179959
0.05319934630604036
0.05319935062902965
0.05319935529607996
0.05319936060450022
0.05319936696922181
0.05319937489433903
0.05319938490239911
0.05319939746420899
0.05319941292819714
0.05319943138722375
0.053199453027465
0.05319947832652711
0.05319950791820355
0.05319954255895914
0.05319958295304875
0.05319962985028164
0.05319968405387505
0.05319974613432544
0.05319981588088026
0.05319989310508633
0.05319997924354423
0.05320007622446972
0.05320018529048701
0.05320030770467341
0.05320044492565649
0.05320059859195874
0.05320077051530567
0.05320096269461397
0.05320117733287113
0.05320141685228353
0.05320168390794325
0.05320198140016857
0.05320231248672692
0.05320268059617247
0.05320308942385049
0.05320354284883762
0.05320404486669796
0.05320460057279896
0.05320521906111204
0.05320591235133934
0.0532066920873812
0.05320756732794475
0.05320853024083939
0.05320956018587321
0.0532106579124403
0.05321184415549141
0.05321313007289033
0.05321451011910379
0.05321596318225542
0.05321744896358626
0.05321891193179827
0.05322029440424495
0.05322155702217349
0.05322268922653776
0.0532237234608937
0.05322477792915235
0.0532259450891293
0.05322706129135581
0.05322784516371031
0.05322834761711222
0.05322897648708326
0.05322976585585407
0.0532305376125666
0.05323136396875484
0.0532319373611064
0.05323256604695365
0.05323345840371302
0.05323434116861017
0.05323530088884307
0.05323632461339683
0.05323739034114248
0.05323849473469026
0.05323964057730305
0.05324082311305482
0.05324203435610141
0.05324326723999349
0.05324451419563681
0.05324576678689782
0.05324701635076247
0.05324825428520889
0.0532494724398567
0.05325066386288847
0.05325182102455963
0.05325294454995258
0.05325403532616989
0.05325506645187289
0.05325604476317877
0.05325702468561667
0.05325803536969549
0.05325913886870148
0.05326040897208403
0.05326193393418062
0.05326394584768443
0.05326657313721147
0.05326981684410351
0.05327392947392053
0.05327925210519643
0.05328595098046346
0.05329422673397095
0.0533042103486145
0.05331627036400621
0.05333109472603487
0.0533357195592194
0.05342544672385264
0.05314357843182735
0.05214943683307234
0.05214943967411576
0.05214944288922622
0.0521494460561111
0.0521494493012306
0.05214945279487881
0.05214945675040795
0.0521494614681782
0.0521494673169936
0.05214947468318133
0.05214948391891401
0.05214949529414222
0.05214950891730993
0.05214952491877007
0.05214954354983359
0.05214956524010189
0.0521495905810213
0.05214962008789781
0.05214965428453455
0.05214969372633226
0.05214973880624409
0.05214978938738992
0.05214984545041716
0.05214990802775546
0.05214997837189545
0.05215005734769684
0.05215014585023073
0.05215024490824534
0.05215035567696045
0.05215047943775858
0.0521506176108154
0.05215077177023857
0.05215094365919571
0.05215113520536701
0.05215134853673362
0.05215158599728394
0.05215185016204059
0.05215214385043462
0.05215247013608051
0.0521528323510691
0.05215323408972485
0.05215367922462845
0.05215417190742948
0.0521547163966888
0.052155316670174
0.05215597763452903
0.05215671303226423
0.05215754248778355
0.05215846917686825
0.05215947875739015
0.05216056841675656
0.05216174819838115
0.05216301803564171
0.05216437029218272
0.05216579822538511
0.05216728803078867
0.05216879766613567
0.05217024533846151
0.05217154459010045
0.05217269594542744
0.05217379770936355
0.05217493938141764
0.05217606735965584
0.05217700091150903
0.05217776855870129
0.05217854550290152
0.05217948661259126
0.05218071132068454
0.05218159242814992
0.05218233290357074
0.05218338650904873
0.05218454652523651
0.0521858054008652
0.05218716640691642
0.05218864259253656
0.05219024638618813
0.05219198238590894
0.05219385635854615
0.05219587570576281
0.05219804636183076
0.05220037240937368
0.05220285633526887
0.05220549843673393
0.05220829614979496
0.05221124453569742
0.05221433219995859
0.05221754703232586
0.05222088011531119
0.05222429900980539
0.05222777588750998
0.05223129500435467
0.05223480776312642
0.05223829769071429
0.05224175000987016
0.05224512016360094
0.05224847076920373
0.05225184407145794
0.05225523889685103
0.05225883272729201
0.05226269330863414
0.0522667840378291
0.05227117016210006
0.05227572237932501
0.05228048600124124
0.05228880655820409
0.05226529616652068
0.05239308181848781
0.05201699860222084
0.05112339678822964
0.05112339909304572
0.05112340170104095
0.05112340426903215
0.05112340689783627
0.05112340972174919
0.0511234129080546
0.05112341669421564
0.05112342137475278
0.05112342726111604
0.05112343464002777
0.05112344373753008
0.0511234546682492
0.0511234675402835
0.05112348249944275
0.05112349986921733
0.05112352014995436
0.05112354376084039
0.05112357111577245
0.05112360265135175
0.05112363867723942
0.05112367909601088
0.05112372392098474
0.0511237739361962
0.05112383008588271
0.05112389306342167
0.05112396356863323
0.05112404239814089
0.05112413044528285
0.05112422870013236
0.05112433825897959
0.05112446033641951
0.05112459627795867
0.0511247475734023
0.05112491587121692
0.05112510299377553
0.05112531095326525
0.05112554196793799
0.05112579847828216
0.05112608316257583
0.05112639895077187
0.05112674903437661
0.05112713686985256
0.05112756617449106
0.05112804091494223
0.05112856526163672
0.0511291433823454
0.05112977911496477
0.05113047746999989
0.0511312523906061
0.05113211858227498
0.05113307448395748
0.05113411726751942
0.05113524852878081
0.05113646228577654
0.05113774878557838
0.05113909748010401
0.05114049536808271
0.05114191974298914
0.0511433186846057
0.05114460430598274
0.05114574414105831
0.05114680904093791
0.05114785915620053
0.05114880663382117
0.05114955625346892
0.05115020722889315
0.05115097894488497
0.05115196798658189
0.05115266405267026
0.0511532605431464
0.05115409899038791
0.05115496495781143
0.05115591588064292
0.05115696134520804
0.05115810707483772
0.05115936351888591
0.05116074178904304
0.05116225295651485
0.05116390975166298
0.05116572749139829
0.05116772287224381
0.05116991365208125
0.0511723186128833
0.05117495905926234
0.05117785501262946
0.05118102656463051
0.05118450165732685
0.05118829575104552
0.05119242619439279
0.05119691703344574
0.05120175883311318
0.05120695582591486
0.05121250036374538
0.05121832374411184
0.05122439561457135
0.05123063507391153
0.05123687723303322
0.05124303718158714
0.05124895744618246
0.05125442648310335
0.05125935593613989
0.05126331985138821
0.05126535816704259
0.0512771344841235
0.05122539781333731
0.0513982706641612
0.05092727540554141
0.050215306262893
0.05021530821815275
0.05021531043054086
0.05021531260856612
0.05021531483661371
0.05021531722608936
0.05021531991504986
0.05021532310080416
0.05021532703020369
0.05021533196646512
0.05021533815398752
0.050215345789942
0.05021535499052777
0.0502153658506333
0.05021537845656304
0.05021539306757206
0.05021541012417146
0.05021542998566708
0.05021545300032775
0.05021547953536133
0.05021550985644417
0.05021554389829473
0.05021558167411071
0.05021562380594836
0.05021567107129686
0.05021572406645412
0.05021578337619639
0.05021584966109334
0.05021592366174078
0.0502160061984362
0.05021609817844767
0.05021620060590283
0.05021631459228895
0.05021644136771017
0.05021658229313567
0.05021673887365914
0.0502169127727022
0.05021710582703981
0.05021732006244174
0.05021755770960406
0.05021782121988145
0.05021811328008974
0.05021843682526838
0.05021879504791613
0.05021919140274442
0.05021962960800378
0.05022011363963217
0.0502206476784738
0.05022123588336738
0.05022188208139664
0.05022259103117455
0.05022337486676851
0.05022424541613041
0.05022520349113663
0.05022624978444759
0.05022738215342287
0.05022859068480143
0.05022986470765894
0.05023119206242159
0.05023255618133957
0.0502339292016325
0.05023526005615241
0.05023648279837931
0.05023758012709516
0.05023856879928512
0.050239459721825
0.05024024296229207
0.05024091103466669
0.05024161580732076
0.05024244459802594
0.05024299748414304
0.0502434899603446
0.05024423915487453
0.05024500648382324
0.05024583287568181
0.05024672500629361
0.05024768523644246
0.05024872355124406
0.05024984971023125
0.05025107112930819
0.05025239486149093
0.05025382893990949
0.0502553824377331
0.05025706467571946
0.05025888699023148
0.05026086049481882
0.05026299496870917
0.05026530743052121
0.05026780773033603
0.05027050777318499
0.05027342905975155
0.05027657343862004
0.05027995625991875
0.05028359165263917
0.05028745111961033
0.05029153881562641
0.05029583067707478
0.05030024215724571
0.05030474183725835
0.05030924341231494
0.05031359862061527
0.05031781777255902
0.05032172413049492
0.05032133672002675
0.05034444083472617
0.0502672949270726
0.05049136472895914
0.04991905498373338
0.04939992074109446
0.04939992244009055
0.04939992436255468
0.04939992625499788
0.04939992818996913
0.04939993026251093
0.04939993258984312
0.04939993534039176
0.04939993872639346
0.04939994297572765
0.04939994830150042
0.04939995487889797
0.04939996282242979
0.04939997221670709
0.04939998311032735
0.04939999571830435
0.04940001043521172
0.04940002757649488
0.04940004744324841
0.04940007035302874
0.04940009654090419
0.04940012596606695
0.04940015864245622
0.04940019507857799
0.04940023593582963
0.04940028174307683
0.04940033300630439
0.04940039029336558
0.04940045424123334
0.04940052555557322
0.04940060501660049
0.04940069348753819
0.04940079192372367
0.04940090138241537
0.04940102303353789
0.04940115817143716
0.04940130822764773
0.04940147478464553
0.0494016595905117
0.04940186457435855
0.04940209186226209
0.04940234379330329
0.04940262293513149
0.04940293209819974
0.04940327434737945
0.04940365300902373
0.04940407167171609
0.04940453418213014
0.04940504463659979
0.04940560732346953
0.04940622647390855
0.0494069059015917
0.04940765026748006
0.04940847187541831
0.04940938369548954
0.04941038863753351
0.0494114815214283
0.04941265266577394
0.04941389272481612
0.04941519069153738
0.04941653158755858
0.04941789460593839
0.04941924807689824
0.04942053950589204
0.04942170684727627
0.04942273773287746
0.04942366856265561
0.04942453878218094
0.04942530932388479
0.04942605066952449
0.04942684991084174
0.0494274210122897
0.04942792572665961
0.04942861480075464
0.04942935920404035
0.04943016319794656
0.04943103565285373
0.04943198119467935
0.04943300067240472
0.04943409811807407
0.04943527921476747
0.04943654911750396
0.04943791280830708
0.04943937446523344
0.04944093888628695
0.04944261037844228
0.04944439010251839
0.04944628372560463
0.04944829043385184
0.04945040826267544
0.04945264167320707
0.04945497791004548
0.04945741588514422
0.04945995889999896
0.04946258093350635
0.04946528496171187
0.0494680623166006
0.04947086718274247
0.04947369349002379
0.04947649744884226
0.04947915322279001
0.04948171726419959
0.04948505986218063
0.04947889688857611
0.04951403106256916
0.04940767728396889
0.04968278918441555
0.0489979924004651
0.04864312974382608
0.04864313124728057
0.04864313294847679
0.04864313462296307
0.04864313633438359
0.04864313816558254
0.04864314021829843
0.04864314263936613
0.04864314561492614
0.04864314934598991
0.04864315402164425
0.0486431597997389
0.04864316679162359
0.04864317507385614
0.04864318467008324
0.04864319576304631
0.04864320871062518
0.04864322379440501
0.04864324127958501
0.04864326144600289
0.04864328450534984
0.04864331043435625
0.04864333924653791
0.04864337136640925
0.04864340736930739
0.04864344773240603
0.04864349290227941
0.04864354337722725
0.04864359971651883
0.04864366254000042
0.04864373253278764
0.04864381045272314
0.04864389713846231
0.04864399351804718
0.04864410061853364
0.04864421957646316
0.04864435164936531
0.04864449822827253
0.04864466085124107
0.04864484121782604
0.04864504120438956
0.04864526288002416
0.04864550852274133
0.04864578063540047
0.04864608196061782
0.0486464154935124
0.04864678449058956
0.04864719247249223
0.04864764322049959
0.04864814076981312
0.04864868937965287
0.04864929336134052
0.04864995670758589
0.04865068365488454
0.04865148342050273
0.04865237003654634
0.04865335008695014
0.0486544179890433
0.04865556451294737
0.04865678130753991
0.04865805877310569
0.0486593836457582
0.04866073704471334
0.04866208958008086
0.04866339037201106
0.04866456904088159
0.04866559323948603
0.04866651989477999
0.0486674289361432
0.04866823504173758
0.04866893139795907
0.04866965192785196
0.0486703649944099
0.04867108043236722
0.04867180395178533
0.04867258396792926
0.04867342490044383
0.04867432898637874
0.04867530456627549
0.04867635653613938
0.04867748884691608
0.04867870575381122
0.04868001199054416
0.04868141159725281
0.04868290884758422
0.0486845081026297
0.04868621057153065
0.04868802096273042
0.04868993909708955
0.04869196282906849
0.04869409541128859
0.04869632527146802
0.04869864594315673
0.04870105269193752
0.04870351504373719
0.04870601968470633
0.04870854101389503
0.04871102315990873
0.04871343539934508
0.04871572777467403
0.04871772633583068
0.04871916030920127
0.04872326649118727
0.04870975070020972
0.04875856519367497
0.04861993027376584
0.04895173300110801
0.04814789183403793
0.04794065736178654
0.04794065871486701
0.04794066024589296
0.04794066175274321
0.0479406632922846
0.0479406649381366
0.04794066678037694
0.04794066894950376
0.0479406716117847
0.04794067494768162
0.04794067912776721
0.04794068429630093
0.04794069056125379
0.04794069799303411
0.04794070659828283
0.04794071653575203
0.04794072813428948
0.04794074164931192
0.04794075731872739
0.04794077539376454
0.04794079606812576
0.04794081933081105
0.04794084519327552
0.04794087401714604
0.0479409063139002
0.04794094252060488
0.0479409830382151
0.04794102831185922
0.04794107884145182
0.04794113518108874
0.04794119794308051
0.04794126780449536
0.04794134551434415
0.04794143190133297
0.04794152788240284
0.04794163447215922
0.04794175279324057
0.04794188408766692
0.04794202972919544
0.04794219123665921
0.0479423702883145
0.04794256873693401
0.04794278862561756
0.04794303220383664
0.04794330194326892
0.04794360055265857
0.04794393099061327
0.04794429647466079
0.04794470048426576
0.04794514675667711
0.0479456392785266
0.04794618226276544
0.04794678001291561
0.04794743653878763
0.04794815575777367
0.04794894557907294
0.04794982199968072
0.04795079180535267
0.04795184624820172
0.0479529768826649
0.04795417644600766
0.04795543572077315
0.04795674109880943
0.04795807333616647
0.04795940468562693
0.047960687611886
0.04796184766022994
0.04796284182384095
0.04796376770762305
0.04796463223060272
0.04796535201932253
0.04796595023175117
0.047966342956818
0.04796677546105275
0.04796744777363214
0.04796817565053515
0.04796895203880389
0.0479697909730178
0.04797069414961311
0.04797166547733841
0.04797271006664756
0.0479738321840462
0.04797503616650289
0.04797632574149723
0.04797770455944221
0.04797917668248773
0.04798074319202435
0.04798240786123351
0.04798417070329066
0.04798602925165037
0.047987985498303
0.04799002961150092
0.04799215425831467
0.0479943531413113
0.0479965985261105
0.0479988731135767
0.04800114743699539
0.04800336563522806
0.04800547958992828
0.04800745409778437
0.04800918247660699
0.04800953028137651
0.04801587543726214
0.04799426592989355
0.04805970292370526
0.04788729770429034
0.04827972162842033
0.0473477494308659
0.04728493141602183
0.04728493264828765
0.04728493404259947
0.04728493541479971
0.04728493681636111
0.0472849383136041
0.04728493998739991
0.04728494195528597
0.04728494436770416
0.0472849473886149
0.04728495117369409
0.04728495585607172
0.04728496154026084
0.04728496829164167
0.04728497610477678
0.04728498511982599
0.04728499564171036
0.04728500790472465
0.04728502212508598
0.04728503853131831
0.04728505730264555
0.047285078437215
0.04728510194481605
0.04728512813870393
0.04728515748037093
0.04728519037451875
0.04728522718613101
0.04728526831864629
0.04728531422544294
0.04728536540917758
0.04728542242523086
0.04728548588760709
0.04728555647546158
0.04728563494014328
0.04728572211296117
0.0472858189137814
0.04728592636051196
0.04728604557952765
0.04728617781708118
0.0472863244517281
0.04728648700776264
0.04728666716961515
0.047286866797096
0.04728708794127519
0.04728733286065566
0.04728760403712089
0.04728790419090455
0.04728823629347896
0.0472886035766391
0.04728900953539263
0.04728945792367075
0.04728995274688581
0.04729049824081995
0.04729109872343555
0.04729175815147103
0.04729248033640503
0.04729327379314916
0.04729415750035149
0.04729513542055633
0.04729619323060284
0.04729732342534946
0.04729852014697343
0.04729977524666873
0.04730107668608353
0.04730240750599099
0.04730373942148817
0.04730501109489851
0.04730611971684065
0.04730700549901257
0.04730791920129793
0.04730883929444161
0.04730952793478796
0.04731013298241325
0.04731080233341361
0.04731149093674279
0.0473121566602979
0.04731286002725161
0.04731362683165227
0.04731445319312609
0.04731534279278709
0.04731629939745777
0.04731732614871587
0.04731842672119457
0.04731960431234424
0.04732086173990505
0.04732220233401783
0.04732362661342568
0.04732513707533577
0.04732673323053618
0.04732841183182537
0.04733017306659096
0.04733200743254318
0.04733390600599405
0.0473358605046863
0.04733784547102878
0.04733984211298053
0.04734182108699254
0.04734373449522018
0.04734552307243824
0.04734714829080954
0.04734878856624419
0.04734766359694621
0.04735728379855524
0.04732631813078401
0.04741050384172691
0.04720216411872025
0.04765714291942266
0.04658929235878636
0.04667112203158454
0.04667112316522572
0.04667112444794765
0.04667112571026504
0.04667112699927724
0.04667112837540499
0.04667112991208394
0.0466711317163073
0.04667113392550533
0.04667113668998966
0.04667114015318605
0.04667114443905114
0.04667114964578433
0.04667115582102224
0.04667116296182712
0.04667117121193907
0.04667118084619687
0.04667119207664834
0.0466712051012964
0.04667122013026315
0.04667123733072893
0.04667125670791009
0.04667127827050684
0.04667130229328286
0.04667132919693631
0.04667135935908456
0.04667139311524088
0.04667143083484169
0.04667147293332514
0.04667151987143186
0.04667157215820697
0.04667163035638523
0.04667169508839464
0.04667176704283331
0.04667184698161826
0.04667193574791458
0.04667203427490583
0.04667214359546556
0.0466722648527873
0.04667239931201991
0.04667254837293394
0.04667271358361264
0.04667289665511199
0.04667309947696408
0.04667332413329638
0.04667357291919987
0.04667384835679173
0.04667415321016343
0.04667449049799951
0.04667486350197238
0.04667527576863538
0.046675731104908
0.0466762335703076
0.04667678743737298
0.04667739697401975
0.04667806602934937
0.04667879907577179
0.04667960769491256
0.04668050543988489
0.04668149227909056
0.04668255924844677
0.04668369881604637
0.04668490360827982
0.04668616286933985
0.04668746038995589
0.0466887760440982
0.04669008344318799
0.04669131576136831
0.04669237719908245
0.04669331111758646
0.04669423853051225
0.04669505415453486
0.04669562578668433
0.04669596580745106
0.04669635613546999
0.04669696382207178
0.04669763693702343
0.04669835149240092
0.04669911595550316
0.04669993881162402
0.04670082383110853
0.04670177398966711
0.04670279282465929
0.04670388337981255
0.04670504813957808
0.0467062901632173
0.04670760992995791
0.0467090093424859
0.04671048788515269
0.04671204222125262
0.04671367148544814
0.04671536687787309
0.04671711920254128
0.04671891915164605
0.04672074279041379
0.04672256966219494
0.04672436839339925
0.04672609733096197
0.04672768741863973
0.04672901705198607
0.04673088148946445
0.04672788000637892
0.04674171472949358
0.04670004870127244
0.04680458965646414
0.04655899433063584
0.04707839387706349
0.04586889033883911
0.04609018443467788
0.04609018548780933
0.04609018667942842
0.04609018785203101
0.04609018904915962
0.04609019032643484
0.04609019175121688
0.04609019342181078
0.04609019546480367
0.04609019801906614
0.04609020121801302
0.04609020517797529
0.04609020998559869
0.04609021565186906
0.0460902221988341
0.04609022980314215
0.04609023869520915
0.04609024906144277
0.04609026108464973
0.04609027496023475
0.04609029084532019
0.0460903087505154
0.04609032868351984
0.04609035088813993
0.04609037575162754
0.04609040362859054
0.04609043482994499
0.04609046969688693
0.04609050861330329
0.04609055200506969
0.0460906003426706
0.04609065414615977
0.04609071399071839
0.04609078051264908
0.04609085441599502
0.04609093647989155
0.04609102756671318
0.04609112863107795
0.04609124072977352
0.04609136503266264
0.04609150283461143
0.04609165556846141
0.0460918248190291
0.04609201233806421
0.04609222006001795
0.04609245011836134
0.04609270486203602
0.04609298687141893
0.04609329897292993
0.04609364425095827
0.04609402605462828
0.04609444799560394
0.04609491393872325
0.04609542800832167
0.04609599460035332
0.04609661804132821
0.04609730119209694
0.04609804532674854
0.0460988708947481
0.04609979382770685
0.04610080247934763
0.04610188743980654
0.04610304196269002
0.04610425845486499
0.04610552675211665
0.04610683440172146
0.04610816367260399
0.04610946551988563
0.04611061755522391
0.04611151263630595
0.04611246865149542
0.04611348230453538
0.04611418960989416
0.04611471991977399
0.04611534129992865
0.04611600296041083
0.04611662608588431
0.04611729414601746
0.04611801958560944
0.04611880239338109
0.04611964429702863
0.04612054857679913
0.046121518777647
0.04612255793928816
0.04612366854103272
0.04612485369628633
0.046126114231898
0.04612745203559528
0.04612886706566766
0.04613035664263021
0.04613191984649449
0.04613354908182597
0.0461352354473084
0.04613696935455748
0.04613872893423263
0.04614049372243287
0.04614223028755248
0.04614390450656437
0.04614546542067184
0.04614657361855427
0.04614908828826254
0.0461438883488548
0.04616306179811295
0.04610972257091505
0.04623630688849247
0.04595253611782873
0.04653675362423001
0.04518165538776324
0.04553899606757873
0.04553899705137514
0.04553899816454474
0.04553899925991244
0.04553900037798134
0.04553900157029851
0.04553900289907853
0.04553900445528932
0.0455390063563305
0.0455390087313955
0.04553901170528053
0.04553901538725545
0.0455390198545059
0.04553902509859747
0.04553903115849598
0.04553903822234866
0.04553904648691249
0.04553905612141482
0.04553906729666955
0.04553908019536489
0.04553909496579674
0.04553911162290537
0.04553913017399833
0.04553915083729582
0.04553917397142018
0.04553919991109019
0.04553922894642463
0.04553926139480488
0.04553929761352719
0.04553933799909324
0.0455393829895413
0.04553943306905366
0.04553948877314763
0.04553955069427248
0.04553961948799241
0.04553969587986176
0.04553978067305553
0.045539874756819
0.04553997911580462
0.04554009484036083
0.04554022313782925
0.04554036534488988
0.0455405229409679
0.04554069756267479
0.0455408910191963
0.04554110530845232
0.04554134263372011
0.04554160542028553
0.04554189633136445
0.04554221828235578
0.04554257445177787
0.04554296828657715
0.04554340350011468
0.04554388406570785
0.04554441420180412
0.04554499826319248
0.045545640356821
0.04554634430299909
0.04554711746495597
0.0455479767018761