/*--------------------------------*- C++ -*----------------------------------*\
| =========                 |                                                 |
| \\      /  F ield         | OpenFOAM: The Open Source CFD Toolbox           |
|  \\    /   O peration     | Version:  v1812                                 |
|   \\  /    A nd           | Web:      www.OpenFOAM.com                      |
|    \\/     M anipulation  |                                                 |
\*---------------------------------------------------------------------------*/
FoamFile
{
    version     2.0;
    format      ascii;
    class       surfaceScalarField;
    location    "5702";
    object      phi;
}
// * * * * * * * * * * * * * * * * * * * * * * * * * * * * * * * * * * * * * //

dimensions      [0 3 -1 0 0 0 0];
oriented        oriented;


internalField   nonuniform List<scalar> 
87612
(
1.575038515446724e-06
2.676638563007983e-08
3.10780246794593e-06
8.060873706014043e-08
4.608065235321352e-06
1.363290384420559e-07
6.084198349059331e-06
1.954968181577761e-07
7.543297805641086e-06
2.596406467530666e-07
8.991445238603741e-06
3.301151037419044e-07
1.043417148936185e-05
4.07900835538015e-07
1.187704856816117e-05
4.934792701036367e-07
1.332615522100232e-05
5.869627843605683e-07
1.478818562213792e-05
6.884560503623411e-07
1.627023188203928e-05
7.983874193941359e-07
1.777927569416351e-05
9.178057514758096e-07
1.932192705328345e-05
1.048140119579498e-06
2.090446625100056e-05
1.190904170182688e-06
2.25329112155452e-05
1.34767932715806e-06
2.42131135331785e-05
1.520095638061971e-06
2.595077047347335e-05
1.709926339002768e-06
2.775141451625696e-05
1.919122045419235e-06
2.962040570535903e-05
2.14982082190092e-06
3.156293071169686e-05
2.404355667262871e-06
3.358399112403246e-05
2.685280884664828e-06
3.56883849818226e-05
2.99539594711e-06
3.788068154672498e-05
3.337771008396516e-06
4.016518851910418e-05
3.715774975822463e-06
4.254591101259189e-05
4.133106192910616e-06
4.50265016027829e-05
4.593825889606413e-06
4.761020061735229e-05
5.102394722129982e-06
5.029976588918741e-05
5.663712548562769e-06
5.309739127936688e-05
6.283161556820455e-06
5.6004613384356e-05
6.966652881011177e-06
5.902220593482056e-05
7.720676847534575e-06
6.21500614949436e-05
8.552357036876894e-06
6.538706014722382e-05
9.469508384717465e-06
6.873092489930705e-05
1.048069957491181e-05
7.217806375187094e-05
1.159531991543646e-05
7.572339930151834e-05
1.2823650102349e-05
7.936019008905887e-05
1.417693400045793e-05
8.307985672414095e-05
1.566744304191657e-05
8.687184400816623e-05
1.730851558597509e-05
9.072357688111045e-05
1.911454513805376e-05
9.46205806097598e-05
2.110090548034838e-05
9.854675635921438e-05
2.328389259054477e-05
0.0001024844623875953
2.568102497061463e-05
0.0001064133119922007
2.83124422713928e-05
0.0001103077918826439
3.120221048555416e-05
0.0001141370157653862
3.43763235062599e-05
0.0001178660812670134
3.786124871437126e-05
0.0001214565424880987
4.168497347591642e-05
0.0001248670091967225
4.587705503737571e-05
0.0001280542665466325
5.04682921890897e-05
0.0001309757621081034
5.548956719052447e-05
0.0001335938145156415
6.097035196946089e-05
0.0001358810107089076
6.693776753873614e-05
0.0001378230851804976
7.341937200740486e-05
0.0001394073061310305
8.045794762644196e-05
0.0001406177458381493
8.810493665288742e-05
0.000141447423579985
9.640391713815923e-05
0.00014190448446873
0.0001053969464412286
0.0001420151146908587
0.0001151282376678637
0.0001418107958657525
0.000125660270275135
0.0001413353714506116
0.0001370544673250738
0.000140655591493962
0.0001493682501066914
0.0001398499495025537
0.0001626773260513405
0.0001389630924371233
0.0001771107472153767
0.0001380105676834662
0.0001928012608136253
0.0001370163703606989
0.0002098532573827929
0.0001359410217440528
0.0002284530545767334
0.0001347354452181806
0.0002487439867857834
0.0001334168283848733
0.0002708053848032673
0.0001319925031642133
0.0002948056092106715
0.0001304523867755887
0.0003209346342486442
0.0001287825362159165
0.0003493841804396521
0.0001269768481334213
0.0003803509259724668
0.0001250278816729563
0.0004140588605204584
0.0001229275348373696
0.0004507510398455756
0.0001206679410135192
0.0004906911160238287
0.0001182415143087002
0.0005341660943848304
0.00011564100172436
0.0005814884013843239
0.0001128596493376662
0.00063299802927669
0.000109891362274585
0.0006890650011930866
0.0001067308599251416
0.0007500920529394526
0.0001033738594442548
0.0008165175189508881
9.981726883960342e-05
0.0008888184955746448
9.60593819279591e-05
0.0009675142930116661
9.210007195366937e-05
0.001053170197274295
8.794097678948889e-05
0.001146401572364186
8.358565713975218e-05
0.001247878343449733
7.903984004965915e-05
0.00135832976399008
7.431071100663815e-05
0.001478550649443032
6.940253828831937e-05
0.001609410794718305
6.432486960938246e-05
0.001751848662978945
5.909282308198219e-05
0.001906886106227398
5.372470601376781e-05
0.002075638457768209
4.82418848821195e-05
0.002259320358031649
4.26687603262207e-05
0.002459254444055892
3.703970456223884e-05
0.002676873960463974
3.131730043207258e-05
0.002913821879930176
2.545789735872774e-05
0.003171814933773337
1.943066937062037e-05
0.003452702461788111
1.318542796133106e-05
0.003758531106209288
6.64100492686396e-06
0.004091538881134465
-3.289937173003933e-07
0.004454173741344162
-7.915827004063642e-06
0.004849116326286763
-1.641094947548452e-05
0.005279314542071425
-2.626673447788943e-05
0.00574802951980241
-3.818509197452668e-05
0.006258885898396631
-5.295102400032964e-05
0.006815641137425807
0.007350945870599675
4.343462408006852e-09
2.242292322530317e-08
1.703693918809482e-08
6.791526028639656e-08
3.800025743009647e-08
1.153657202033e-07
6.737934906780306e-08
1.661177265261595e-07
1.054996453535499e-07
2.215203504746609e-07
1.527857697129041e-07
2.828289793877239e-07
2.096546877000453e-07
3.510319175522536e-07
2.764432986941009e-07
4.266906591105234e-07
3.534441709338791e-07
5.099619121206457e-07
4.410348614627193e-07
6.008653598308243e-07
5.398052878907911e-07
6.996169929657723e-07
6.508053690396509e-07
8.068056703278363e-07
7.755119288946032e-07
9.234335597268895e-07
9.154825754856968e-07
1.050933523594897e-06
1.07232252135213e-06
1.190839381290986e-06
1.247807649314868e-06
1.344610510098788e-06
1.443927189956493e-06
1.513806798360805e-06
1.662911363797322e-06
1.700137871580059e-06
1.90725091958223e-06
1.905481266115268e-06
2.179708422506814e-06
2.131898164337839e-06
2.483332733137255e-06
2.381656574035452e-06
2.821459543627432e-06
2.657269136620186e-06
3.197667075152484e-06
2.961563476870834e-06
3.615785624002048e-06
3.297656426973358e-06
4.079975307681008e-06
3.668916509229646e-06
4.594767030290527e-06
4.079034166998253e-06
5.165085634921965e-06
4.532076117499033e-06
5.796271588223687e-06
5.032526595262183e-06
6.49410035215638e-06
5.585332792888273e-06
7.264798275687632e-06
6.195954957480535e-06
8.115053508489656e-06
6.870421614734724e-06
9.052020103634006e-06
7.615390441731862e-06
1.008331316602145e-05
8.438215322330264e-06
1.121699263549148e-05
9.347020105444008e-06
1.246153294603983e-05
1.03507796048886e-05
1.382577475736153e-05
1.145940829102764e-05
1.531885155236272e-05
1.268385720545529e-05
1.695007475309642e-05
1.403621984118305e-05
1.872874162404003e-05
1.552984871503209e-05
2.066380012111199e-05
1.717948664097998e-05
2.276322744892221e-05
1.90014781525372e-05
2.503286523576475e-05
2.101425480370324e-05
2.747539261094223e-05
2.323849759543678e-05
3.00907738442413e-05
2.569706103809268e-05
3.287773447832448e-05
2.841524985147162e-05
3.583324804078726e-05
3.142080994379651e-05
3.895097973446859e-05
3.474351702068874e-05
4.222031269192042e-05
3.841564051846868e-05
4.562504408138292e-05
4.247232364790979e-05
4.914172558014843e-05
4.695161069032314e-05
5.27378494017248e-05
5.189344336894659e-05
5.637086962668092e-05
5.73373317445065e-05
5.998815733763022e-05
6.332047982778383e-05
6.352685821261129e-05
6.988067113241982e-05
6.691574976266472e-05
7.706905607639033e-05
7.007991191148531e-05
8.494077450406361e-05
7.294855467618787e-05
9.353527437345861e-05
7.546402785384546e-05
0.0001028814732635689
7.757750483607635e-05
0.0001130147606856406
7.925310871694638e-05
0.0001239846663942676
8.046440114386589e-05
0.0001358431748981682
8.12016356708699e-05
0.0001486310155796702
8.149432169282103e-05
0.000162384640029391
8.144380133481963e-05
0.0001771612675733666
8.119603393028115e-05
0.0001930490282181827
8.089431453982474e-05
0.0002101549767732289
8.06012866046987e-05
0.0002287460825118748
8.034933594874468e-05
0.0002489959374417044
8.006983753269312e-05
0.0002710848832192819
7.975818669552134e-05
0.0002951172600477924
7.94289581386556e-05
0.0003212638628055243
7.907877488831771e-05
0.0003497343636899814
7.87015546906854e-05
0.000380728146170123
7.829360867562617e-05
0.0004144668065355472
7.785026632812257e-05
0.0004511943821930792
7.736581468748321e-05
0.0004911755676644597
7.683371808447296e-05
0.0005346981909878282
7.624642278517571e-05
0.0005820756966836242
7.559522683506943e-05
0.0006336492252267808
7.487016550098438e-05
0.0006897900625271841
7.405990583967141e-05
0.0007509023126007413
7.315163516469084e-05
0.0008174257896258697
7.213095691545297e-05
0.0008898391738238854
7.09818009721631e-05
0.000968663448954927
6.968635396724593e-05
0.001054465644279226
6.82250203308924e-05
0.001147862906000521
6.657640436871734e-05
0.001249526959411907
6.471727953988329e-05
0.00136018888881893
6.262356103197701e-05
0.001480644367950937
6.026246993721946e-05
0.00161177188581306
5.760154981319717e-05
0.001754509583102966
5.460922436252652e-05
0.001909878431678076
5.125142799614554e-05
0.002078996254134588
4.749128356928803e-05
0.002263080502458514
4.32882612251328e-05
0.002463457466400043
3.859292991416566e-05
0.002681569291774937
3.340917710831796e-05
0.002919005632736012
2.773344341384629e-05
0.003177490667467809
2.154767239214803e-05
0.003458888232809809
1.482507070505274e-05
0.003765253707896382
7.537571104925524e-06
0.004098826380734588
-3.428855906163507e-07
0.004462054198039704
-8.841733592579733e-06
0.004857615174288724
-1.79689941468665e-05
0.005288441802625709
-2.769027327475289e-05
0.005757750798930292
-3.791046222266799e-05
0.006269106087344548
-4.748306770855378e-05
0.006825213742911693
0.007303462802891121
1.320957201788574e-09
2.110196601725383e-08
5.321061041458523e-09
6.391515643395292e-08
1.211392105472466e-08
1.085728601836879e-07
2.188804887902105e-08
1.563435986882772e-07
3.489558357034387e-08
2.085128157812166e-07
5.141959377659966e-08
2.663049691794265e-07
7.171582073903765e-08
3.307356905842738e-07
9.59525134920461e-08
4.024539663525888e-07
1.241984044225834e-07
4.817160211874228e-07
1.564807138021908e-07
5.685830504490937e-07
1.92869815491417e-07
6.632278912749025e-07
2.335359540535746e-07
7.661395317637341e-07
2.788132967385847e-07
8.781562170404741e-07
3.291851150154219e-07
1.000561705315264e-06
3.85183609923306e-07
1.134840886384096e-06
4.473840193805676e-07
1.282410100641617e-06
5.164505731790801e-07
1.444740244560677e-06
5.931530034184839e-07
1.623435441338831e-06
6.783787801502922e-07
1.820255489381347e-06
7.731448753114169e-07
2.037132069175875e-06
8.786062404167205e-07
2.276195208929824e-06
9.960461290299829e-07
2.539829248006972e-06
1.126816045214486e-06
2.830793560685087e-06
1.272363753929789e-06
3.152108718257922e-06
1.434321179980101e-06
3.506959083180439e-06
1.614528877694282e-06
3.898826469284139e-06
1.815065349195181e-06
4.331539645999554e-06
2.038279835093664e-06
4.809312109362868e-06
2.286828973754394e-06
5.336783654227636e-06
2.563717705349261e-06
5.919066225884714e-06
2.872344755211298e-06
6.561794564873546e-06
3.216552957965051e-06
7.271182238977149e-06
3.600684557984737e-06
8.054083722311264e-06
4.029641411989551e-06
8.918063251439615e-06
4.508949689032265e-06
9.871471327845985e-06
5.044828171799492e-06
1.092352980825856e-05
5.644258635882874e-06
1.20844267413711e-05
6.315056201040779e-06
1.336542227602487e-05
7.065937638809236e-06
1.477896727726296e-05
7.906587582510093e-06
1.633883669727897e-05
8.847734557220429e-06
1.806033117782726e-05
9.901279049437326e-06
1.996071031148635e-05
1.108046500094904e-05
2.205931164392429e-05
1.240008676881425e-05
2.437743927022984e-05
1.387670853739563e-05
2.693862808289078e-05
1.552858599491283e-05
2.976893248627927e-05
1.737417894541952e-05
3.289792407018244e-05
1.943072282391652e-05
3.635909663997229e-05
2.171357277640876e-05
4.018947369541914e-05
2.423511692110729e-05
4.443006654562435e-05
2.700243565083274e-05
4.912612463921868e-05
3.001322031033309e-05
5.43265470850063e-05
3.32502934301553e-05
6.008340670796462e-05
3.667800061983071e-05
6.645296394274148e-05
4.025104352580369e-05
7.349601317041955e-05
4.391696580719749e-05
8.127485222267185e-05
4.760529164390638e-05
8.984694853674613e-05
5.122517791157926e-05
9.926158699589285e-05
5.46714904256353e-05
0.0001095684481715856
5.783531315488918e-05
0.0001208208436650096
6.061915748354201e-05
0.0001330593305695207
6.293175061894517e-05
0.0001463184224442634
6.467112011624082e-05
0.000160645270532104
6.577495725400866e-05
0.0001760574304355894
6.626143586000778e-05
0.0001925625496121817
6.622444383064634e-05
0.000210191968802583
6.589950182154904e-05
0.0002290710245209684
6.550166878158264e-05
0.0002493937704816633
6.511827622786363e-05
0.0002714682757730189
6.470276184747687e-05
0.0002955327744281546
6.424233062603046e-05
0.000321724294026952
6.374202030767855e-05
0.0003502346740083603
6.319759178023594e-05
0.0003812725746975715
6.26049422727935e-05
0.0004150594560429407
6.196042628374989e-05
0.000451838898182161
6.126000062579838e-05
0.0004918759933224157
6.04992882755682e-05
0.0005354589033380715
5.967360304372353e-05
0.0005829013819154722
5.877790138384907e-05
0.0006345449268866525
5.780673486352141e-05
0.0006907612290475237
5.675419518668717e-05
0.0007519548522775733
5.561385599566259e-05
0.0008185661288168883
5.437869807889753e-05
0.0008910743317406543
5.304101723574089e-05
0.0009700011297980745
5.159231142559111e-05
0.001055914350089365
5.002314180322169e-05
0.001149432075622893
4.83229695932517e-05
0.001251227131621879
4.647999539830644e-05
0.001362031863013872
4.448075150357806e-05
0.001482643611845657
4.232206775131389e-05
0.001613930569565315
3.999452070537461e-05
0.001756837130148909
3.748097946530652e-05
0.001912391972918145
3.4761923527464e-05
0.002081715310072429
3.181534050337703e-05
0.002266027085482609
2.861652421820521e-05
0.002466656282685206
2.513689333529535e-05
0.002685048922657845
2.135767972411516e-05
0.002922784846347189
1.725327105858051e-05
0.003181595076133348
1.277903097196982e-05
0.003463362472896421
7.894404986367164e-06
0.003770138333881982
2.555484138611934e-06
0.004104165301582343
-3.286060311979071e-06
0.004467895742490294
-9.686312812999436e-06
0.004864015426789743
-1.671484042901225e-05
0.005295470330241722
-2.447239753685703e-05
0.005765508356038135
-3.311592753425406e-05
0.006277749617341947
-4.143279389990525e-05
0.006833530609277344
0.007262030008991216
8.069842483388828e-10
2.029498176978879e-08
3.251456128839816e-09
6.147068455553454e-08
7.403794938766893e-09
1.044205213741271e-07
1.338068128508212e-08
1.503667123437316e-07
2.133917976068922e-08
2.005543173023249e-07
3.145858656479446e-08
2.561855623780137e-07
4.390617554802718e-08
3.182881016029988e-07
5.879771777169875e-08
3.875624241307037e-07
7.618171105677206e-08
4.643320279045404e-07
9.606677473565241e-08
5.486979867688274e-07
1.184729473669897e-07
6.408217186443335e-07
1.434714589085902e-07
7.411410202244783e-07
1.712000836604698e-07
8.504275922893696e-07
2.019030439223032e-07
9.698587450521215e-07
2.358777058662659e-07
1.100866224439534e-06
2.734246178818762e-07
1.24486318862616e-06
3.148868799001928e-07
1.403277982543027e-06
3.606602092966633e-07
1.577662111943336e-06
4.111983241419558e-07
1.769717374534942e-06
4.670179974604952e-07
1.981312395857916e-06
5.2870395467449e-07
2.214509251715462e-06
5.969100791566258e-07
2.471623123524352e-06
6.723476592993061e-07
2.755355980543687e-06
7.558104363239614e-07
3.068645941232306e-06
8.482015471606098e-07
3.414567972344024e-06
9.505302138837731e-07
3.796497802560638e-06
1.063925080529449e-06
4.218144779354118e-06
1.189649409612985e-06
4.683587780278751e-06
1.329118366454405e-06
5.197314697385269e-06
1.483918656185053e-06
5.764265936154841e-06
1.65583080627302e-06
6.389882414785957e-06
1.846854415842323e-06
7.080158629407435e-06
2.059236725302999e-06
7.841701412850053e-06
2.295504893301517e-06
8.681795083440745e-06
2.558502409977578e-06
9.608473811169099e-06
2.851430131352915e-06
1.063060208688369e-05
3.17789250829271e-06
1.175796436443236e-05
3.541949731720355e-06
1.300136505259643e-05
3.948176777721247e-06
1.437274023126186e-05
4.401730800471921e-06
1.588528267452797e-05
4.908480001936525e-06
1.755358197636132e-05
5.475408599037978e-06
1.939378171438506e-05
6.110964856494189e-06
2.142375538646902e-05
6.825100386464102e-06
2.366330374025911e-05
7.629350854445688e-06
2.613437761491026e-05
8.536952645562253e-06
2.886133069516108e-05
9.563061271965225e-06
3.187181544378045e-05
1.072503170710627e-05
3.519712620482983e-05
1.204270617473917e-05
3.887179922778426e-05
1.353803873448479e-05
4.293473398587991e-05
1.523422759976436e-05
4.74299357739394e-05
1.715461446013644e-05
5.240616022463559e-05
1.932076542589017e-05
5.791725574221012e-05
2.175071308688356e-05
6.402301628174636e-05
2.445661035885136e-05
7.079011589845346e-05
2.74388811370512e-05
7.829258144447354e-05
3.067569408165346e-05
8.661013559214182e-05
3.411203043837619e-05
9.582525063916918e-05
3.766158725308866e-05
0.0001060188913568705
4.122114587174192e-05
0.0001172612850463534
4.467767309391981e-05
0.0001296028033473425
4.791259654069325e-05
0.0001430834989974898
5.081066732961507e-05
0.000157747199743179
5.323541307012648e-05
0.0001736326846950747
5.502767002164015e-05
0.000190770292660674
5.606908289539258e-05
0.0002091505559288144
5.642393136338942e-05
0.0002287161760529696
5.628557150509031e-05
0.0002495321303399776
5.596192828418954e-05
0.0002717919189939101
5.561703907103869e-05
0.0002958776636413129
5.52500629794588e-05
0.0003220912701185165
5.485049852030436e-05
0.0003506342384674966
5.441351145930229e-05
0.000381709561758562
5.393546947789453e-05
0.0004155374980243425
5.341282286399944e-05
0.000452361544796047
5.284146101723882e-05
0.0004924473551691693
5.221698674570357e-05
0.0005360833776095996
5.153466895143654e-05
0.0005835836997097494
5.078931141789661e-05
0.000635290284420177
4.997519990949856e-05
0.0006915753405559326
4.908616310552009e-05
0.0007528438890815332
4.811554523820658e-05
0.0008195367466841971
4.705617094904792e-05
0.0008921337060297998
4.590031877541183e-05
0.0009711569819717146
4.463969708884798e-05
0.001057174971775927
4.326542515491481e-05
0.00115080634755682
4.176799405575856e-05
0.001252724562721035
4.013727043564222e-05
0.001363662586633978
3.836252933448133e-05
0.001484418352946816
3.643233080232492e-05
0.001615860768097471
3.43344710029659e-05
0.001758934989948261
3.205589226809088e-05
0.001914670551653018
2.958234131230034e-05
0.002084188861028216
2.689832328085465e-05
0.002268711103514052
2.398668554697215e-05
0.002469567920419089
2.082808966294836e-05
0.002688207518541869
1.740129923084664e-05
0.002926211636779285
1.368220178996753e-05
0.003185314173574223
9.633274311297792e-06
0.00346741140037509
5.223489684302448e-06
0.003774548118508977
4.174680954206929e-07
0.004108971323171225
-4.825150080273876e-06
0.004473138360665988
-1.055052828248548e-05
0.004869740804991953
-1.681045925281375e-05
0.005301730261212051
-2.365345690191968e-05
0.005772351353687239
-3.121870295284377e-05
0.006285314863392872
-3.722985799291956e-05
0.006839541764317418
0.007224800150998296
5.501486306675007e-10
1.97448331385882e-08
2.216629953698661e-09
5.98042032292874e-08
5.047494822612478e-09
1.015896565039887e-07
9.122560616917323e-09
1.462916465482514e-07
1.454985665706542e-08
1.951270212624682e-07
2.14543064771372e-08
2.492811125610646e-07
2.995561527608821e-08
3.097867928013051e-07
4.014120195147129e-08
3.773768374531383e-07
5.20524662548036e-08
4.524207636005416e-07
6.569945885083429e-08
5.350509941713847e-07
8.109453098514298e-08
6.254266465090294e-07
9.828119353301638e-08
7.239543576769866e-07
1.173468347391089e-07
8.313619510819062e-07
1.3845101787463e-07
9.487545619172669e-07
1.617886253173887e-07
1.077528616994392e-06
1.875552708913134e-07
1.219096543051512e-06
2.159739298869698e-07
1.374859323547484e-06
2.473010113873796e-07
1.546335030444154e-06
2.818292313935784e-07
1.73518915452764e-06
3.198905500013752e-07
1.943251077250419e-06
3.618602623686967e-07
2.172539539347248e-06
4.081625969739867e-07
2.425320788916869e-06
4.592748419580557e-07
2.704243735558577e-06
5.157256812251322e-07
3.012195101964658e-06
5.780993128747075e-07
3.352194340694251e-06
6.470462977933912e-07
3.727550817641695e-06
7.232916386888407e-07
4.141899438458427e-06
8.076440280177758e-07
4.599235390950371e-06
9.010064286593333e-07
5.103952296743617e-06
1.004388184261135e-06
5.660884180551845e-06
1.118918889713825e-06
6.27535170933282e-06
1.245864291621651e-06
6.953213227499547e-06
1.386644533766046e-06
7.700921170705959e-06
1.542855114576206e-06
8.525584502630926e-06
1.716290984933889e-06
9.435037940811831e-06
1.908974285283093e-06
1.043791878653514e-05
2.123186304777235e-06
1.154375234493722e-05
2.361504341996302e-06
1.276304701537685e-05
2.626844258448352e-06
1.410740031481025e-05
2.922509640161647e-06
1.558961729281591e-05
3.252248608679025e-06
1.722384300784386e-05
3.620319325176629e-06
1.902571099788782e-05
4.031564669383337e-06
2.101251004226138e-05
4.49149658030927e-06
2.32033718293331e-05
5.006391527053194e-06
2.561948266816629e-05
5.583399358696599e-06
2.828432286351791e-05
6.231276807408125e-06
3.12239379950686e-05
6.961158643585935e-06
3.446724436865229e-05
7.786584618878117e-06
3.804637325249146e-05
8.723604829784444e-06
4.199771377497195e-05
9.790940103701077e-06
4.636260050001977e-05
1.100952235124743e-05
5.118757797708918e-05
1.2401469024675e-05
5.652530906878172e-05
1.3989922571467e-05
6.243456273495468e-05
1.57997491560564e-05
6.898028931386332e-05
1.785766635615567e-05
7.623466424437346e-05
2.018949855316399e-05
8.427830339513341e-05
2.281319089261293e-05
9.320155829971937e-05
2.57268402402116e-05
0.0001031052420092691
2.889014808401887e-05
0.0001140979772025459
3.221146516041178e-05
0.0001262814862709496
3.555892270645566e-05
0.0001397360414514485
3.879880208354468e-05
0.0001545073203660855
4.181327974068555e-05
0.0001706182070379386
4.448054550431793e-05
0.0001881030268970385
4.661951859563097e-05
0.0002070115828374984
4.800825442969058e-05
0.0002273274402189036
4.859705709144313e-05
0.0002489433276782361
4.856533773280091e-05
0.0002718236383525454
4.828246253936914e-05
0.0002961605388347303
4.795706675432046e-05
0.0003224166659035653
4.760050599216605e-05
0.000350990799229637
4.721537504450449e-05
0.0003820946927062156
4.679764426023378e-05
0.0004159552288085941
4.634341552005914e-05
0.0004528157735362253
4.584966808117225e-05
0.000492941102608055
4.531241071662853e-05
0.0005366206349741476
4.472715345361453e-05
0.0005841689569727626
4.408928918624115e-05
0.0006359281486875339
4.339414350366372e-05
0.0006922704862385039
4.263651445362738e-05
0.0007536015181315767
4.181064148063299e-05
0.0008203626196571849
4.091019790402963e-05
0.0008930341496064083
3.992824154144923e-05
0.000972138938334288
3.885715279857254e-05
0.001058246060518799
3.768857267019365e-05
0.001151974927685193
3.641331946012176e-05
0.001253999815931108
3.502132166056995e-05
0.001365054584433527
3.350155728228958e-05
0.001485938117325092
3.184190308345122e-05
0.001617520422296304
3.002906072304709e-05
0.001760747832308663
2.804799923252493e-05
0.001916651613143539
2.588268129480423e-05
0.002086354178965935
2.351572261555152e-05
0.002271078062193305
2.09282214433326e-05
0.002472155421591301
1.809956755726355e-05
0.002691036172427936
1.500758747514006e-05
0.002929303616861411
1.162886885866027e-05
0.0031886928921907
7.946248329613916e-06
0.003471094020904135
3.932452455688986e-06
0.0037785619143829
-4.419725427779716e-07
0.004113345748169691
-5.208895407821093e-06
0.004477905283531031
-1.040288219328372e-05
0.004874934791777417
-1.606607274873406e-05
0.005307393451767499
-2.220259871395787e-05
0.005778487879652463
-2.900502191384047e-05
0.006292117286592755
-3.336548020181873e-05
0.006843902222605394
0.007191434670796477
4.08161593340552e-10
1.933667154444252e-08
1.644424074011118e-09
5.856794074757134e-08
3.744334045756171e-09
9.948974653179658e-08
6.767087122270805e-09
1.432688934694377e-07
1.079314141562124e-08
1.911009669707572e-07
1.59163933466333e-08
2.441578606309093e-07
2.222852211668174e-08
3.034746640326262e-07
2.979906257844344e-08
3.698062969899399e-07
3.866389643449772e-08
4.435559297410928e-07
4.883399632391209e-08
5.248808942808287e-07
6.031939228275591e-08
6.139412505506863e-07
7.315128464736669e-08
7.111224653115189e-07
8.73926894407509e-08
8.171205462877077e-07
1.031607977634012e-07
9.329864535924876e-07
1.205991051887896e-07
1.060090309568293e-06
1.398509118944963e-07
1.199844736344768e-06
1.610794563898289e-07
1.353630779049681e-06
1.844722210907927e-07
1.522942265743369e-06
2.102428924935375e-07
1.709418483126214e-06
2.38633307941202e-07
1.914860661804052e-06
2.699163199396528e-07
2.141256527347468e-06
3.04400410862193e-07
2.390836697994567e-06
3.424374324595641e-07
2.66620671396061e-06
3.844167748801696e-07
2.970215759542754e-06
4.307632250872549e-07
3.305847890486694e-06
4.819486088792666e-07
3.676365433849932e-06
5.384973028224798e-07
4.085350744515089e-06
6.009925289582588e-07
4.536740164814308e-06
6.700835439092426e-07
5.034861281792288e-06
7.464938541767533e-07
5.58447387028303e-06
8.310306156522466e-07
6.190814947857412e-06
9.245954042209152e-07
6.859648438931433e-06
1.028196578359166e-06
7.59731999656667e-06
1.14296349421975e-06
8.410817586769747e-06
1.270162880821937e-06
9.307838554207869e-06
1.411217737860781e-06
1.029686392949578e-05
1.56772918416383e-06
1.138724089863282e-05
1.741501761721637e-06
1.258927443781838e-05
1.934572791254833e-06
1.391432928527747e-05
2.149246482949727e-06
1.537494360112081e-05
2.388133632694903e-06
1.698495585809835e-05
2.654197883446434e-06
1.875964674713517e-05
2.95080970842594e-06
2.071589821728246e-05
3.28180948211616e-06
2.287237205564308e-05
3.651581249715287e-06
2.524971090056716e-05
4.065139069249386e-06
2.787076504398246e-05
4.528228030233556e-06
3.076084903408494e-05
5.047439595469809e-06
3.3948032803416e-05
5.630339860495714e-06
3.746347298746515e-05
6.286262482024536e-06
4.134179115344217e-05
7.02736029695078e-06
4.562150268509279e-05
7.868902990805239e-06
5.034603528323569e-05
8.829367923874406e-06
5.556484413571192e-05
9.929442278190638e-06
6.133448838063872e-05
1.119081040773508e-05
6.771892118431979e-05
1.263646753187019e-05
7.478900712023724e-05
1.429133301524904e-05
8.262343791175483e-05
1.618261646597992e-05
9.131027484898724e-05
1.833914651233744e-05
0.0001009487119629099
2.078651609195785e-05
0.0001116506076229256
2.352774082302135e-05
0.0001235402615398861
2.651574271280202e-05
0.0001367480395616656
2.963603462655409e-05
0.0001513870284523342
3.273210518683937e-05
0.00016752213647765
3.567194586688696e-05
0.00018516318621699
3.8348741306458e-05
0.0002043347873979344
4.057825772077235e-05
0.0002250979238045826
4.209279754188827e-05
0.0002474287878571135
4.274861645552872e-05
0.0002711678194388953
4.273355813106725e-05
0.0002961755971592075
4.244255907558141e-05
0.0003227076649590335
4.212303170249158e-05
0.0003513103266027297
4.177282097372124e-05
0.0003824449034349795
4.139096399784511e-05
0.0004163370857844813
4.097491034919898e-05
0.0004532318271848691
4.052132943185456e-05
0.0004933946835253823
4.002726134958531e-05
0.0005371147030564216
3.948950483155609e-05
0.0005847067134907884
3.890430569229212e-05
0.0006365133478267854
3.826730314522574e-05
0.0006929074887855699
3.757383652100188e-05
0.0007542949847557958
3.681885491971193e-05
0.0008211176012584753
3.599684403124204e-05
0.0008938561604948721
3.510177725880715e-05
0.0009730340051067163
3.412706176376817e-05
0.001059220776013834
3.306548391589198e-05
0.001153036505533073
3.190913623335452e-05
0.001255156163613645
3.064934718969644e-05
0.001366314373477187
2.927662007488694e-05
0.001487310844439901
2.778051396149264e-05
0.001619016528409691
2.614955346346724e-05
0.001762378792806691
2.437103746817999e-05
0.001918430129138824
2.2431027302755e-05
0.002088294189131356
2.031431789220238e-05
0.002273194771603857
1.800426894232447e-05
0.00247446547054118
1.548266203681081e-05
0.00269355777933345
1.272982528646387e-05
0.002932056453611755
9.724964544841171e-06
0.003191697752932322
6.44766359540406e-06
0.00347437132185357
2.873167588865957e-06
0.003782136410389438
-1.025919155207828e-06
0.004117244834913763
-5.277134597705878e-06
0.004482156498973529
-9.912388470633338e-06
0.004879570045650342
-1.49742340900352e-05
0.0053124552973869
-2.044165862296871e-05
0.005783955304185395
-2.651554923936903e-05
0.006298191177209155
-2.942432871413954e-05
0.006846811002080165
0.007162010342082338
3.189478667059396e-10
1.901772367931795e-08
1.284977393144531e-09
5.760191122152288e-08
2.925848091641032e-09
9.784887583384891e-08
5.287844079493037e-09
1.409068974813869e-07
8.43405957379545e-09
1.879547514761411e-07
1.243861561026386e-08
2.401533045938215e-07
1.737487413906591e-08
2.985384055035325e-07
2.330000404154282e-08
3.63881167087423e-07
3.024527837732151e-08
4.366106554048454e-07
3.822164658814438e-08
5.169045260706348e-07
4.723779065614181e-08
6.049251064831692e-07
5.731776092740319e-08
7.010424950385963e-07
6.851002828205674e-08
8.059282789337953e-07
8.090589621462613e-08
9.205905856602973e-07
9.461741247185866e-08
1.046378793311302e-06
1.097561093063184e-07
1.184706039510789e-06
1.264490300384748e-07
1.33693785831723e-06
1.44842010311105e-07
1.504549285469398e-06
1.651012225026121e-07
1.68915927093398e-06
1.874146318637563e-07
1.892547252444388e-06
2.119941497980535e-07
2.116677009413407e-06
2.390795238863807e-07
2.363751323905947e-06
2.68945408098386e-07