/*--------------------------------*- C++ -*----------------------------------*\
| =========                 |                                                 |
| \\      /  F ield         | OpenFOAM: The Open Source CFD Toolbox           |
|  \\    /   O peration     | Version:  v1812                                 |
|   \\  /    A nd           | Web:      www.OpenFOAM.com                      |
|    \\/     M anipulation  |                                                 |
\*---------------------------------------------------------------------------*/
FoamFile
{
    version     2.0;
    format      ascii;
    class       volScalarField;
    location    "1792";
    object      profileRefFieldInversion;
}
// * * * * * * * * * * * * * * * * * * * * * * * * * * * * * * * * * * * * * //

dimensions      [0 0 0 0 0 0 0];


internalField   nonuniform List<scalar> 
44064
(
1e+16
1e+16
1e+16
1e+16
1e+16
1e+16
1e+16
1e+16
1e+16
1e+16
1e+16
1e+16
1e+16
1e+16
1e+16
1e+16
1e+16
1e+16
1e+16
1e+16
1e+16
1e+16
1e+16
1e+16
1e+16
1e+16
1e+16
1e+16
1e+16
1e+16
1e+16
1e+16
1e+16
1e+16
1e+16
1e+16
1e+16
1e+16
1e+16
1e+16
1e+16
1e+16
1e+16
1e+16
1e+16
1e+16
1e+16
1e+16
1e+16
1e+16
1e+16
1e+16
1e+16
1e+16
1e+16
1e+16
1e+16
1e+16
1e+16
1e+16
1e+16
1e+16
1e+16
1e+16
1e+16
1e+16
1e+16
1e+16
1e+16
1e+16
1e+16
1e+16
1e+16
1e+16
1e+16
1e+16
1e+16
1e+16
1e+16
1e+16
1e+16
1e+16
1e+16
1e+16
1e+16
1e+16
1e+16
1e+16
1e+16
1e+16
1e+16
1e+16
1e+16
1e+16
1e+16
1e+16
1e+16
1e+16
1e+16
1e+16
1e+16
1e+16
1e+16
1e+16
1e+16
1e+16
1e+16
1e+16
1e+16
1e+16
1e+16
1e+16
1e+16
1e+16
1e+16
1e+16
1e+16
1e+16
1e+16
1e+16
1e+16
1e+16
1e+16
1e+16
1e+16
1e+16
1e+16
1e+16
1e+16
1e+16
1e+16
1e+16
1e+16
1e+16
1e+16
1e+16
1e+16
1e+16
1e+16
1e+16
1e+16
1e+16
1e+16
1e+16
1e+16
1e+16
1e+16
1e+16
1e+16
1e+16
1e+16
1e+16
1e+16
1e+16
1e+16
1e+16
1e+16
1e+16
1e+16
1e+16
1e+16
1e+16
1e+16
1e+16
1e+16
1e+16
1e+16
1e+16
1e+16
1e+16
1e+16
1e+16
1e+16
1e+16
1e+16
1e+16
1e+16
1e+16
1e+16
1e+16
1e+16
1e+16
1e+16
1e+16
1e+16
1e+16
1e+16
1e+16
1e+16
1e+16
1e+16
1e+16
1e+16
1e+16
1e+16
1e+16
1e+16
1e+16
1e+16
1e+16
1e+16
1e+16
1e+16
1e+16
1e+16
1e+16
1e+16
1e+16
1e+16
1e+16
1e+16
1e+16
1e+16
1e+16
1e+16
1e+16
1e+16
1e+16
1e+16
1e+16
1e+16
1e+16
1e+16
1e+16
1e+16
1e+16
1e+16
1e+16
1e+16
1e+16
1e+16
1e+16
1e+16
1e+16
1e+16
1e+16
1e+16
1e+16
1e+16
1e+16
1e+16
1e+16
1e+16
1e+16
1e+16
1e+16
1e+16
1e+16
1e+16
1e+16
1e+16
1e+16
1e+16
1e+16
1e+16
1e+16
1e+16
1e+16
1e+16
1e+16
1e+16
1e+16
1e+16
1e+16
1e+16
1e+16
1e+16
1e+16
1e+16
1e+16
1e+16
1e+16
1e+16
1e+16
1e+16
1e+16
1e+16
1e+16
1e+16
1e+16
1e+16
1e+16
1e+16
1e+16
1e+16
1e+16
1e+16
1e+16
1e+16
1e+16
1e+16
1e+16
1e+16
1e+16
1e+16
1e+16
1e+16
1e+16
1e+16
1e+16
1e+16
1e+16
1e+16
1e+16
1e+16
1e+16
1e+16
1e+16
1e+16
1e+16
1e+16
1e+16
1e+16
1e+16
1e+16
1e+16
1e+16
1e+16
1e+16
1e+16
1e+16
1e+16
1e+16
1e+16
1e+16
1e+16
1e+16
1e+16
1e+16
1e+16
1e+16
1e+16
1e+16
1e+16
1e+16
1e+16
1e+16
1e+16
1e+16
1e+16
1e+16
1e+16
1e+16
1e+16
1e+16
1e+16
1e+16
1e+16
1e+16
1e+16
1e+16
1e+16
1e+16
1e+16
1e+16
1e+16
1e+16
1e+16
1e+16
1e+16
1e+16
1e+16
1e+16
1e+16
1e+16
1e+16
1e+16
1e+16
1e+16
1e+16
1e+16
1e+16
1e+16
1e+16
1e+16
1e+16
1e+16
1e+16
1e+16
1e+16
1e+16
1e+16
1e+16
1e+16
1e+16
1e+16
1e+16
1e+16
1e+16
1e+16
1e+16
1e+16
1e+16
1e+16
1e+16
1e+16
1e+16
1e+16
1e+16
1e+16
1e+16
1e+16
1e+16
1e+16
1e+16
1e+16
1e+16
1e+16
1e+16
1e+16
1e+16
1e+16
1e+16
1e+16
1e+16
1e+16
1e+16
1e+16
1e+16
1e+16
1e+16
1e+16
1e+16
1e+16
1e+16
1e+16
1e+16
1e+16
1e+16
1e+16
1e+16
1e+16
1e+16
1e+16
1e+16
1e+16
1e+16
1e+16
1e+16
1e+16
1e+16
1e+16
1e+16
1e+16
1e+16
1e+16
1e+16
1e+16
1e+16
1e+16
1e+16
1e+16
1e+16
1e+16
1e+16
1e+16
1e+16
1e+16
1e+16
1e+16
1e+16
1e+16
1e+16
1e+16
1e+16
1e+16
1e+16
1e+16
1e+16
1e+16
1e+16
1e+16
1e+16
1e+16
1e+16
1e+16
1e+16
1e+16
1e+16
1e+16
1e+16
1e+16
1e+16
1e+16
1e+16
1e+16
1e+16
1e+16
1e+16
1e+16
1e+16
1e+16
1e+16
1e+16
1e+16
1e+16
1e+16
1e+16
1e+16
1e+16
1e+16
1e+16
1e+16
1e+16
1e+16
1e+16
1e+16
1e+16
1e+16
1e+16
1e+16
1e+16
1e+16
1e+16
1e+16
1e+16
1e+16
1e+16
1e+16
1e+16
1e+16
1e+16
1e+16
1e+16
1e+16
1e+16
1e+16
1e+16
1e+16
1e+16
1e+16
1e+16
1e+16
1e+16
1e+16
1e+16
1e+16
1e+16
1e+16
1e+16
1e+16
1e+16
1e+16
1e+16
1e+16
1e+16
1e+16
1e+16
1e+16
1e+16
1e+16
1e+16
1e+16
1e+16
1e+16
1e+16
1e+16
1e+16
1e+16
1e+16
1e+16
1e+16
1e+16
1e+16
1e+16
1e+16
1e+16
1e+16
1e+16
1e+16
1e+16
1e+16
1e+16
1e+16
1e+16
1e+16
1e+16
1e+16
1e+16
1e+16
1e+16
1e+16
1e+16
1e+16
1e+16
1e+16
1e+16
1e+16
1e+16
1e+16
1e+16
1e+16
1e+16
1e+16
1e+16
1e+16
1e+16
1e+16
1e+16
1e+16
1e+16
1e+16
1e+16
1e+16
1e+16
1e+16
1e+16
1e+16
1e+16
1e+16
1e+16
1e+16
1e+16
1e+16
1e+16
1e+16
1e+16
1e+16
1e+16
1e+16
1e+16
1e+16
1e+16
1e+16
1e+16
1e+16
1e+16
1e+16
1e+16
1e+16
1e+16
1e+16
1e+16
1e+16
1e+16
1e+16
1e+16
1e+16
1e+16
1e+16
1e+16
1e+16
1e+16
1e+16
1e+16
1e+16
1e+16
1e+16
1e+16
1e+16
1e+16
1e+16
1e+16
1e+16
1e+16
1e+16
1e+16
1e+16
1e+16
1e+16
1e+16
1e+16
1e+16
1e+16
1e+16
1e+16
1e+16
1e+16
1e+16
1e+16
1e+16
1e+16
1e+16
1e+16
1e+16
1e+16
1e+16
1e+16
1e+16
1e+16
1e+16
1e+16
1e+16
1e+16
1e+16
1e+16
1e+16
1e+16
1e+16
1e+16
1e+16
1e+16
1e+16
1e+16
1e+16
1e+16
1e+16
1e+16
1e+16
1e+16
1e+16
1e+16
1e+16
1e+16
1e+16
1e+16
1e+16
1e+16
1e+16
1e+16
1e+16
1e+16
1e+16
1e+16
1e+16
1e+16
1e+16
1e+16
1e+16
1e+16
1e+16
1e+16
1e+16
1e+16
1e+16
1e+16
1e+16
1e+16
1e+16
1e+16
1e+16
1e+16
1e+16
1e+16
1e+16
1e+16
1e+16
1e+16
1e+16
1e+16
1e+16
1e+16
1e+16
1e+16
1e+16
1e+16
1e+16
1e+16
1e+16
1e+16
1e+16
1e+16
1e+16
1e+16
1e+16
1e+16
1e+16
1e+16
1e+16
1e+16
1e+16
1e+16
1e+16
1e+16
1e+16
1e+16
1e+16
1e+16
1e+16
1e+16
1e+16
1e+16
1e+16
1e+16
1e+16
1e+16
1e+16
1e+16
1e+16
1e+16
1e+16
1e+16
1e+16
1e+16
1e+16
1e+16
1e+16
1e+16
1e+16
1e+16
1e+16
1e+16
1e+16
1e+16
1e+16
1e+16
1e+16
1e+16
1e+16
1e+16
1e+16
1e+16
1e+16
1e+16
1e+16
1e+16
1e+16
1e+16
1e+16
1e+16
1e+16
1e+16
1e+16
1e+16
1e+16
1e+16
1e+16
1e+16
1e+16
1e+16
1e+16
1e+16
1e+16
1e+16
1e+16
1e+16
1e+16
1e+16
1e+16
1e+16
1e+16
1e+16
1e+16
1e+16
1e+16
1e+16
1e+16
1e+16
1e+16
1e+16
1e+16
1e+16
1e+16
1e+16
1e+16
1e+16
1e+16
1e+16
1e+16
1e+16
1e+16
1e+16
1e+16
1e+16
1e+16
1e+16
1e+16
1e+16
1e+16
1e+16
1e+16
1e+16
1e+16
1e+16
1e+16
1e+16
1e+16
1e+16
1e+16
1e+16
1e+16
1e+16
1e+16
1e+16
1e+16
1e+16
1e+16
1e+16
1e+16
1e+16
1e+16
1e+16
1e+16
1e+16
1e+16
1e+16
1e+16
1e+16
1e+16
1e+16
1e+16
1e+16
1e+16
1e+16
1e+16
1e+16
1e+16
1e+16
1e+16
1e+16
1e+16
1e+16
1e+16
1e+16
1e+16
1e+16
1e+16
1e+16
1e+16
1e+16
1e+16
1e+16
1e+16
1e+16
1e+16
1e+16
1e+16
1e+16
1e+16
1e+16
1e+16
1e+16
1e+16
1e+16
1e+16
1e+16
1e+16
1e+16
1e+16
1e+16
1e+16
1e+16
1e+16
1e+16
1e+16
1e+16
1e+16
1e+16
1e+16
1e+16
1e+16
1e+16
1e+16
1e+16
1e+16
1e+16
1e+16
1e+16
1e+16
1e+16
1e+16
1e+16
1e+16
1e+16
1e+16
1e+16
1e+16
1e+16
1e+16
1e+16
1e+16
1e+16
1e+16
1e+16
1e+16
1e+16
1e+16
1e+16
1e+16
1e+16
1e+16
1e+16
1e+16
1e+16
1e+16
1e+16
1e+16
1e+16
1e+16
1e+16
1e+16
1e+16
1e+16
1e+16
1e+16
1e+16
1e+16
1e+16
1e+16
1e+16
1e+16
1e+16
1e+16
1e+16
1e+16
1e+16
1e+16
1e+16
1e+16
1e+16
1e+16
1e+16
1e+16
1e+16
1e+16
1e+16
1e+16
1e+16
1e+16
1e+16
1e+16
1e+16
1e+16
1e+16
1e+16
1e+16
1e+16
1e+16
1e+16
1e+16
1e+16
1e+16
1e+16
1e+16
1e+16
1e+16
1e+16
1e+16
1e+16
1e+16
1e+16
1e+16
1e+16
1e+16
1e+16
1e+16
1e+16
1e+16
1e+16
1e+16
1e+16
1e+16
1e+16
1e+16
1e+16
1e+16
1e+16
1e+16
1e+16
1e+16
1e+16
1e+16
1e+16
1e+16
1e+16
1e+16
1e+16
1e+16
1e+16
1e+16
1e+16
1e+16
1e+16
1e+16
1e+16
1e+16
1e+16
1e+16
1e+16
1e+16
1e+16
1e+16
1e+16
1e+16
1e+16
1e+16
1e+16
1e+16
1e+16
1e+16
1e+16
1e+16
1e+16
1e+16
1e+16
1e+16
1e+16
1e+16
1e+16
1e+16
1e+16
1e+16
1e+16
1e+16
1e+16
1e+16
1e+16
1e+16
1e+16
1e+16
1e+16
1e+16
1e+16
1e+16
1e+16
1e+16
1e+16
1e+16
1e+16
1e+16
1e+16
1e+16
1e+16
1e+16
1e+16
1e+16
1e+16
1e+16
1e+16
1e+16
1e+16
1e+16
1e+16
1e+16
1e+16
1e+16
1e+16
1e+16
1e+16
1e+16
1e+16
1e+16
1e+16
1e+16
1e+16
1e+16
1e+16
1e+16
1e+16
1e+16
1e+16
1e+16
1e+16
1e+16
1e+16
1e+16
1e+16
1e+16
1e+16
1e+16
1e+16
1e+16
1e+16
1e+16
1e+16
1e+16
1e+16
1e+16
1e+16
1e+16
1e+16
1e+16
1e+16
1e+16
1e+16
1e+16
1e+16
1e+16
1e+16
1e+16
1e+16
1e+16
1e+16
1e+16
1e+16
1e+16
1e+16
1e+16
1e+16
1e+16
1e+16
1e+16
1e+16
1e+16
1e+16
1e+16
1e+16
1e+16
1e+16
1e+16
1e+16
1e+16
1e+16
1e+16
1e+16
1e+16
1e+16
1e+16
1e+16
1e+16
1e+16
1e+16
1e+16
1e+16
1e+16
1e+16
1e+16
1e+16
1e+16
1e+16
1e+16
1e+16
1e+16
1e+16
1e+16
1e+16
1e+16
1e+16
1e+16
1e+16
1e+16
1e+16
1e+16
1e+16
1e+16
1e+16
1e+16
1e+16
1e+16
1e+16
1e+16
1e+16
1e+16
1e+16
1e+16
1e+16
1e+16
1e+16
1e+16
1e+16
1e+16
1e+16
1e+16
1e+16
1e+16
1e+16
1e+16
1e+16
1e+16
1e+16
1e+16
1e+16
1e+16
1e+16
1e+16
1e+16
1e+16
1e+16
1e+16
1e+16
1e+16
1e+16
1e+16
1e+16
1e+16
1e+16
1e+16
1e+16
1e+16
1e+16
1e+16
1e+16
1e+16
1e+16
1e+16
1e+16
1e+16
1e+16
1e+16
1e+16
1e+16
1e+16
1e+16
1e+16
1e+16
1e+16
1e+16
1e+16
1e+16
1e+16
1e+16
1e+16
1e+16
1e+16
1e+16
1e+16
1e+16
1e+16
1e+16
1e+16
1e+16
1e+16
1e+16
1e+16
1e+16
1e+16
1e+16
1e+16
1e+16
1e+16
1e+16
1e+16
1e+16
1e+16
1e+16
1e+16
1e+16
1e+16
1e+16
1e+16
1e+16
1e+16
1e+16
1e+16
1e+16
1e+16
1e+16
1e+16
1e+16
1e+16
1e+16
1e+16
1e+16
1e+16
1e+16
1e+16
1e+16
1e+16
1e+16
1e+16
1e+16
1e+16
1e+16
1e+16
1e+16
1e+16
1e+16
1e+16
1e+16
1e+16
1e+16
1e+16
1e+16
1e+16
1e+16
1e+16
1e+16
1e+16
1e+16
1e+16
1e+16
1e+16
1e+16
1e+16
1e+16
1e+16
1e+16
1e+16
1e+16
1e+16
1e+16
1e+16
1e+16
1e+16
1e+16
1e+16
1e+16
1e+16
1e+16
1e+16
1e+16
1e+16
1e+16
1e+16
1e+16
1e+16
1e+16
1e+16
1e+16
1e+16
1e+16
1e+16
1e+16
1e+16
1e+16
1e+16
1e+16
1e+16
1e+16
1e+16
1e+16
1e+16
1e+16
1e+16
1e+16
1e+16
1e+16
1e+16
1e+16
1e+16
1e+16
1e+16
1e+16
1e+16
1e+16
1e+16
1e+16
1e+16
1e+16
1e+16
1e+16
1e+16
1e+16
1e+16
1e+16
1e+16
1e+16
1e+16
1e+16
1e+16
1e+16
1e+16
1e+16
1e+16
1e+16
1e+16
1e+16
1e+16
1e+16
1e+16
1e+16
1e+16
1e+16
1e+16
1e+16
1e+16
1e+16
1e+16
1e+16
1e+16
1e+16
1e+16
1e+16
1e+16
1e+16
1e+16
1e+16
1e+16
1e+16
1e+16
1e+16
1e+16
1e+16
1e+16
1e+16
1e+16
1e+16
1e+16
1e+16
1e+16
1e+16
1e+16
1e+16
1e+16
1e+16
1e+16
1e+16
1e+16
1e+16
1e+16
1e+16
1e+16
1e+16
1e+16
1e+16
1e+16
1e+16
1e+16
1e+16
1e+16
1e+16
1e+16
1e+16
1e+16
1e+16
1e+16
1e+16
1e+16
1e+16
1e+16
1e+16
1e+16
1e+16
1e+16
1e+16
1e+16
1e+16
1e+16
1e+16
1e+16
1e+16
1e+16
1e+16
1e+16
1e+16
1e+16
1e+16
1e+16
1e+16
1e+16
1e+16
1e+16
1e+16
1e+16
1e+16
1e+16
1e+16
1e+16
1e+16
1e+16
1e+16
1e+16
1e+16
1e+16
1e+16
1e+16
1e+16
1e+16
1e+16
1e+16
1e+16
1e+16
1e+16
1e+16
1e+16
1e+16
1e+16
1e+16
1e+16
1e+16
1e+16
1e+16
1e+16
1e+16
1e+16
1e+16
1e+16
1e+16
1e+16
1e+16
1e+16
1e+16
1e+16
1e+16
1e+16
1e+16
1e+16
1e+16
1e+16
1e+16
1e+16
1e+16
1e+16
1e+16
1e+16
1e+16
1e+16
1e+16
1e+16
1e+16
1e+16
1e+16
1e+16
1e+16
1e+16
1e+16
1e+16
1e+16
1e+16
1e+16
1e+16
1e+16
1e+16
1e+16
1e+16
1e+16
1e+16
1e+16
1e+16
1e+16
1e+16
1e+16
1e+16
1e+16
1e+16
1e+16
1e+16
1e+16
1e+16
1e+16
1e+16
1e+16
1e+16
1e+16
1e+16
1e+16
1e+16
1e+16
1e+16
1e+16
1e+16
1e+16
1e+16
1e+16
1e+16
1e+16
1e+16
1e+16
1e+16
1e+16
1e+16
1e+16
1e+16
1e+16
1e+16
1e+16
1e+16
1e+16
1e+16
1e+16
1e+16
1e+16
1e+16
1e+16
1e+16
1e+16
1e+16
1e+16
1e+16
1e+16
1e+16
1e+16
1e+16
1e+16
1e+16
1e+16
1e+16
1e+16
1e+16
1e+16
1e+16
1e+16
1e+16
1e+16
1e+16
1e+16
1e+16
1e+16
1e+16
1e+16
1e+16
1e+16
1e+16
1e+16
1e+16
1e+16
1e+16
1e+16
1e+16
1e+16
1e+16
1e+16
1e+16
1e+16
1e+16
1e+16
1e+16
1e+16
1e+16
1e+16
1e+16
1e+16
1e+16
1e+16
1e+16
1e+16
1e+16
1e+16
1e+16
1e+16
1e+16
1e+16
1e+16
1e+16
1e+16
1e+16
1e+16
1e+16
1e+16
1e+16
1e+16
1e+16
1e+16
1e+16
1e+16
1e+16
1e+16
1e+16
1e+16
1e+16
1e+16
1e+16
1e+16
1e+16
1e+16
1e+16
1e+16
1e+16
1e+16
1e+16
1e+16
1e+16
1e+16
1e+16
1e+16
1e+16
1e+16
1e+16
1e+16
1e+16
1e+16
1e+16
1e+16
1e+16
1e+16
1e+16
1e+16
1e+16
1e+16
1e+16
1e+16
1e+16
1e+16
1e+16
1e+16
1e+16
1e+16
1e+16
1e+16
1e+16
1e+16
1e+16
1e+16
1e+16
1e+16
1e+16
1e+16
1e+16
1e+16
1e+16
1e+16
1e+16
1e+16
1e+16
1e+16
1e+16
1e+16
1e+16
1e+16
1e+16
1e+16
1e+16
1e+16
1e+16
1e+16
1e+16
1e+16
1e+16
1e+16
1e+16
1e+16
1e+16
1e+16
1e+16
1e+16
1e+16
1e+16
1e+16
1e+16
1e+16
1e+16
1e+16
1e+16
1e+16
1e+16
1e+16
1e+16
1e+16
1e+16
1e+16
1e+16
1e+16
1e+16
1e+16
1e+16
1e+16
1e+16
1e+16
1e+16
1e+16
1e+16
1e+16
1e+16
1e+16
1e+16
1e+16
1e+16
1e+16
1e+16
1e+16
1e+16
1e+16
1e+16
1e+16
1e+16
1e+16
1e+16
1e+16
1e+16
1e+16
1e+16
1e+16
1e+16
1e+16
1e+16
1e+16
1e+16
1e+16
1e+16
1e+16
1e+16
1e+16
1e+16
1e+16
1e+16
1e+16
1e+16
1e+16
1e+16
1e+16
1e+16
1e+16
1e+16
1e+16
1e+16
1e+16
1e+16
1e+16
1e+16
1e+16
1e+16
1e+16
1e+16
1e+16
1e+16
1e+16
1e+16
1e+16
1e+16
1e+16
1e+16
1e+16
1e+16
1e+16
1e+16
1e+16
1e+16
1e+16
1e+16
1e+16
1e+16
1e+16
1e+16
1e+16
1e+16
1e+16
1e+16
1e+16
1e+16
1e+16
1e+16
1e+16
1e+16
1e+16
1e+16
1e+16
1e+16
1e+16
1e+16
1e+16
1e+16
1e+16
1e+16
1e+16
1e+16
1e+16
1e+16
1e+16
1e+16
1e+16
1e+16
1e+16
1e+16
1e+16
1e+16
1e+16
1e+16
1e+16
1e+16
1e+16
1e+16
1e+16
1e+16
1e+16
1e+16
1e+16
1e+16
1e+16
1e+16
1e+16
1e+16
1e+16
1e+16
1e+16
1e+16
1e+16
1e+16
1e+16
1e+16
1e+16
1e+16
1e+16
1e+16
1e+16
1e+16
1e+16
1e+16
1e+16
1e+16
1e+16
1e+16
1e+16
1e+16
1e+16
1e+16
1e+16
1e+16
1e+16
1e+16
1e+16
1e+16
1e+16
1e+16
1e+16
1e+16
1e+16
1e+16
1e+16
1e+16
1e+16
1e+16
1e+16
1e+16
1e+16
1e+16
1e+16
1e+16
1e+16
1e+16
1e+16
1e+16
1e+16
1e+16
1e+16
1e+16
1e+16
1e+16
1e+16
1e+16
1e+16
1e+16
1e+16
1e+16
1e+16
1e+16
1e+16
1e+16
1e+16
1e+16
1e+16
1e+16
1e+16
1e+16
1e+16
1e+16
1e+16
1e+16
1e+16
1e+16
1e+16
1e+16
1e+16
1e+16
1e+16
1e+16
1e+16
1e+16
1e+16
1e+16
1e+16
1e+16
1e+16
1e+16
1e+16
1e+16
1e+16
1e+16
1e+16
1e+16
1e+16
1e+16
1e+16
1e+16
1e+16
1e+16
1e+16
1e+16
1e+16
1e+16
1e+16
1e+16
1e+16
1e+16
1e+16
1e+16
1e+16
1e+16
1e+16
1e+16
1e+16
1e+16
1e+16
1e+16
1e+16
1e+16
1e+16
1e+16
1e+16
1e+16
1e+16
1e+16
1e+16
1e+16
1e+16
1e+16
1e+16
1e+16
1e+16
1e+16
1e+16
1e+16
1e+16
1e+16
1e+16
1e+16
1e+16
1e+16
1e+16
1e+16
1e+16
1e+16
1e+16
1e+16
1e+16
1e+16
1e+16
1e+16
1e+16
1e+16
1e+16
1e+16
1e+16
1e+16
1e+16
1e+16
1e+16
1e+16
1e+16
1e+16
1e+16
1e+16
1e+16
1e+16
1e+16
1e+16
1e+16
1e+16
1e+16
1e+16
1e+16
1e+16
1e+16
1e+16
1e+16
1e+16
1e+16
1e+16
1e+16
1e+16
1e+16
1e+16
1e+16
1e+16
1e+16
1e+16
1e+16
1e+16
1e+16
1e+16
1e+16
1e+16
1e+16
1e+16
1e+16
1e+16
1e+16
1e+16
1e+16
1e+16
1e+16
1e+16
1e+16
1e+16
1e+16
1e+16
1e+16
1e+16
1e+16
1e+16
1e+16
1e+16
1e+16
1e+16
1e+16
1e+16
1e+16
1e+16
1e+16
1e+16
1e+16
1e+16
1e+16
1e+16
1e+16
1e+16
1e+16
1e+16
1e+16
1e+16
1e+16
1e+16
1e+16
1e+16
1e+16
1e+16
1e+16
1e+16
1e+16
1e+16
1e+16
1e+16
1e+16
1e+16
1e+16
1e+16
1e+16
1e+16
1e+16
1e+16
1e+16
1e+16
1e+16
1e+16
1e+16
1e+16
1e+16
1e+16
1e+16
1e+16
1e+16
1e+16
1e+16
1e+16
1e+16
1e+16
1e+16
1e+16
1e+16
1e+16
1e+16
1e+16
1e+16
1e+16
1e+16
1e+16
1e+16
1e+16
1e+16
1e+16
1e+16
1e+16
1e+16
1e+16
1e+16
1e+16
1e+16
1e+16
1e+16
1e+16
1e+16
1e+16
1e+16
1e+16
1e+16
1e+16
1e+16
1e+16
1e+16
1e+16
1e+16
1e+16
1e+16
1e+16
1e+16
1e+16
1e+16
1e+16
1e+16
1e+16
1e+16
1e+16
1e+16
1e+16
1e+16
1e+16
1e+16
1e+16
1e+16
1e+16
1e+16
1e+16
1e+16
1e+16
1e+16
1e+16
1e+16
1e+16
1e+16
1e+16
1e+16
1e+16
1e+16
1e+16
1e+16
1e+16
1e+16
1e+16
1e+16
1e+16
1e+16
1e+16
1e+16
1e+16
1e+16
1e+16
1e+16
1e+16
1e+16
1e+16
1e+16
1e+16
1e+16
1e+16
1e+16
1e+16
1e+16
1e+16
1e+16
1e+16
1e+16
1e+16
1e+16
1e+16
1e+16
1e+16
1e+16
1e+16
1e+16
1e+16
1e+16
1e+16
1e+16
1e+16
1e+16
1e+16
1e+16
1e+16
1e+16
1e+16
1e+16
1e+16
1e+16
1e+16
1e+16
1e+16
1e+16
1e+16
1e+16
1e+16
1e+16
1e+16
1e+16
1e+16
1e+16
1e+16
1e+16
1e+16
1e+16
1e+16
1e+16
1e+16
1e+16
1e+16
1e+16
1e+16
1e+16
1e+16
1e+16
1e+16
1e+16
1e+16
1e+16
1e+16
1e+16
1e+16
1e+16
1e+16
1e+16
1e+16
1e+16
1e+16
1e+16
1e+16
1e+16
1e+16
1e+16
1e+16
1e+16
1e+16
1e+16
1e+16
1e+16
1e+16
1e+16
1e+16
1e+16
1e+16
1e+16
1e+16
1e+16
1e+16
1e+16
1e+16
1e+16
1e+16
1e+16
1e+16
1e+16
1e+16
1e+16
1e+16
1e+16
1e+16
1e+16
1e+16
1e+16
1e+16
1e+16
1e+16
1e+16
1e+16
1e+16
1e+16
1e+16
1e+16
1e+16
1e+16
1e+16
1e+16
1e+16
1e+16
1e+16
1e+16
1e+16
1e+16
1e+16
1e+16
1e+16
1e+16
1e+16
1e+16
1e+16
1e+16
1e+16
1e+16
1e+16
1e+16
1e+16
1e+16
1e+16
1e+16
1e+16
1e+16
1e+16
1e+16
1e+16
1e+16
1e+16
1e+16
1e+16
1e+16
1e+16
1e+16
1e+16
1e+16
1e+16
1e+16
1e+16
1e+16
1e+16
1e+16
1e+16
1e+16
1e+16
1e+16
1e+16
1e+16
1e+16
1e+16
1e+16
1e+16
1e+16
1e+16
1e+16
1e+16
1e+16
1e+16
1e+16
1e+16
1e+16
1e+16
1e+16
1e+16
1e+16
1e+16
1e+16
1e+16
1e+16
1e+16
1e+16
1e+16
1e+16
1e+16
1e+16
1e+16
1e+16
1e+16
1e+16
1e+16
1e+16
1e+16
1e+16
1e+16
1e+16
1e+16
1e+16
1e+16
1e+16
1e+16
1e+16
1e+16
1e+16
1e+16
1e+16
1e+16
1e+16
1e+16
1e+16
1e+16
1e+16
1e+16
1e+16
1e+16
1e+16
1e+16
1e+16
1e+16
1e+16
1e+16
1e+16
1e+16
1e+16
1e+16
1e+16
1e+16
1e+16
1e+16
1e+16
1e+16
1e+16
1e+16
1e+16
1e+16
1e+16
1e+16
1e+16
1e+16
1e+16
1e+16
1e+16
1e+16
1e+16
1e+16
1e+16
1e+16
1e+16
1e+16
1e+16
1e+16
1e+16
1e+16
1e+16
1e+16
1e+16
1e+16
1e+16
1e+16
1e+16
1e+16
1e+16
1e+16
1e+16
1e+16
1e+16
1e+16
1e+16
1e+16
1e+16
1e+16
1e+16
1e+16
1e+16
1e+16
1e+16
1e+16
1e+16
1e+16
1e+16
1e+16
1e+16
1e+16
1e+16
1e+16
1e+16
1e+16
1e+16
1e+16
1e+16
1e+16
1e+16
1e+16
1e+16
1e+16
1e+16
1e+16
1e+16
1e+16
1e+16
1e+16
1e+16
1e+16
1e+16
1e+16
1e+16
1e+16
1e+16
1e+16
1e+16
1e+16
1e+16
1e+16
1e+16
1e+16
1e+16
1e+16
1e+16
1e+16
1e+16
1e+16
1e+16
1e+16
1e+16
1e+16
1e+16
1e+16
1e+16
1e+16
1e+16
1e+16
1e+16
1e+16
1e+16
1e+16
1e+16
1e+16
1e+16
1e+16
1e+16
1e+16
1e+16
1e+16
1e+16
1e+16
1e+16
1e+16
1e+16
1e+16
1e+16
1e+16
1e+16
1e+16
1e+16
1e+16
1e+16
1e+16
1e+16
1e+16
1e+16
1e+16
1e+16
1e+16
1e+16
1e+16
1e+16
1e+16
1e+16
1e+16
1e+16
1e+16
1e+16
1e+16
1e+16
1e+16
1e+16
1e+16
1e+16
1e+16
1e+16
1e+16
1e+16
1e+16
1e+16
1e+16
1e+16
1e+16
1e+16
1e+16
1e+16
1e+16
1e+16
0.00499319
0.0150112
0.0251274
0.0353869
0.045835
0.0565168
0.0674073
0.0785183
0.0898887
0.101371
0.112894
0.12449
0.136066
0.147512
0.158716
0.169579
0.180024
0.190001
0.199481
0.208456
0.216935
0.224886
0.232281
0.239191
0.245622
0.25159
0.257174
0.262367
0.267207
0.27175
0.276024
0.280063
0.283903
0.28758
0.291116
0.294543
0.297897
0.301199
0.304478
0.307759
0.311052
0.314365
0.317716
0.321115
0.324568
0.328082
0.331654
0.335284
0.338972
0.34282
0.346957
0.351305
0.355752
0.360284
0.364896
0.369606
0.374452
0.379436
0.384537
0.389739
0.395008
0.400359
0.405843
0.411437
0.417122
0.422949
0.428959
0.435205
0.441644
0.448179
0.454824
0.461544
0.46828
0.475007
0.481497
0.487495
0.492779
0.496838
0.499184
0.500017
0.50017
0.50022
0.500262
0.500296
0.500331
0.5003649999999999
0.500398
0.500428
0.5004459999999999
0.500463
0.50051
0.500692
0.50064
0.500337
0.500189
0.500124
0.500089
0.500068
0.500057
0.500051
0.500048
0.500048
0.500048
0.500049
0.50005
0.500051
0.5000520000000001
0.5000520000000001
0.0100637
0.0302548
0.0506437
0.0713212
0.0923789
0.113908
0.135857
0.158252
0.18117
0.204314
0.227543
0.250919
0.274257
0.297333
0.319924
0.34183
0.362897
0.383021
0.402146
0.420254
0.437363
0.45341
0.468333
0.482277
0.495245
0.507274
0.518518
0.528963
0.5386879999999999
0.547808
0.556379
0.564465
0.572137
0.579467
0.5865
0.593301
0.599939
0.6064580000000001
0.612911
0.61935
0.625796
0.632274
0.638811
0.645414
0.652085
0.658837
0.665678
0.672619
0.67966
0.686993
0.694901
0.7032620000000001
0.711847
0.720615
0.729569
0.73873
0.7481409999999999
0.757832
0.767791
0.778003
0.788427
0.7990969999999999
0.810032
0.821174
0.832541
0.844225
0.856274
0.868776
0.881671
0.8947349999999999
0.907952
0.921367
0.93488
0.948341
0.961414
0.973628
0.984465
0.992923
0.997978
0.999927
1.00038
1.00052
1.00062
1.0007
1.00078
1.00086
1.00094
1.001
1.00105
1.0011
1.0012
1.00156
1.00147
1.00086
1.00054
1.0004
1.0003
1.00024
1.0002
1.00017
1.00016
1.00015
1.00014
1.00013
1.00013
1.00013
1.00013
1.00013
0.0101717
0.0305792
0.0511865
0.07208539999999999
0.0933687
0.115128
0.137314
0.159951
0.183118
0.206516
0.230003
0.253641
0.277245
0.300589
0.323446
0.345617
0.366945
0.387324
0.406698
0.425049
0.442392
0.458664
0.473798
0.487939
0.5010869999999999
0.513275
0.524655
0.535212
0.545025
0.554213
0.562831
0.570943
0.57862
0.585935
0.5929410000000001
0.599702
0.606288
0.6127359999999999
0.619092
0.625403
0.631699
0.638007
0.6443489999999999
0.650726
0.657138
0.66359
0.670091
0.676648
0.683249
0.6901119999999999
0.697533
0.705391
0.713462
0.721683
0.730074
0.738658
0.7474420000000001
0.756487
0.765837
0.775533
0.785597
0.79603
0.806783
0.817824
0.829164
0.840811
0.852871
0.8653960000000001
0.878286
0.8913990000000001
0.904623
0.918003
0.931541
0.94506
0.9583199999999999
0.970933
0.9822650000000001
0.991363
0.997167
0.9997
1.00045
1.0007
1.00083
1.00092
1.00101
1.00111
1.00119
1.00127
1.00133
1.0014
1.00151
1.00186
1.00179
1.00117
1.00082
1.00066
1.00054
1.00045
1.00038
1.00033
1.00029
1.00026
1.00024
1.00022
1.00021
1.0002
1.0002
1.00019
0.0102177
0.0307175
0.051418
0.0724117
0.09379179999999999
0.115651
0.13794
0.160683
0.18396
0.207471
0.231074
0.254831
0.278556
0.302024
0.325006
0.347302
0.368756
0.389263
0.408765
0.427245
0.444716
0.461115
0.476372
0.490628
0.503885
0.516171
0.527641
0.538277
0.548162
0.557413
0.566084
0.5742429999999999
0.58196
0.589309
0.596343
0.603131
0.609747
0.6162300000000001
0.622622
0.628958
0.635262
0.641563
0.647886
0.654234
0.660613
0.667018
0.673438
0.6798729999999999
0.686325
0.693025
0.700232
0.707817
0.715572
0.7234159999999999
0.7313730000000001
0.739498
0.747801
0.756324
0.765136
0.77429
0.783844
0.793818
0.804177
0.8149110000000001
0.826025
0.837531
0.849522
0.862028
0.874858
0.887929
0.901239
0.9146840000000001
0.928236
0.941854
0.955324
0.968269
0.980028
0.989694
0.996227
0.999394
1.00049
1.00085
1.00102
1.00113
1.00122
1.00132
1.00141
1.00149
1.00155
1.00163
1.00175
1.00209
1.00202
1.0014
1.00104
1.00088
1.00074
1.00064
1.00056
1.0005
1.00044
1.0004
1.00037
1.00034
1.00031
1.0003
1.00028
1.00027
0.0102472
0.0308064
0.0515668
0.0726213
0.0940636
0.115987
0.13834
0.161149
0.184494
0.208073
0.231744
0.255569
0.27936
0.302891
0.325934
0.348287
0.369794
0.39035
0.409897
0.428417
0.445924
0.462354
0.477639
0.491921
0.505199
0.517505
0.528996
0.5396570000000001
0.54957
0.558854
0.567566
0.575772
0.583544
0.590948
0.598035
0.604871
0.611531
0.618054
0.624478
0.630839
0.637157
0.64346
0.649772
0.656103
0.662461
0.668839
0.67522
0.6816179999999999
0.688056
0.694722
0.701842
0.709298
0.716888
0.72456
0.732329
0.740249
0.748341
0.756623
0.765132
0.773899
0.78301
0.792531
0.802477
0.812855
0.823664
0.834902
0.846606
0.85886
0.871538
0.884509
0.897818
0.911343
0.924925
0.938639
0.9523200000000001
0.965568
0.977734
0.987896
0.995112
0.998966
1.00045
1.00097
1.00119
1.00132
1.00142
1.00152
1.00161
1.00168
1.00175
1.00184
1.00196
1.00228
1.00222
1.0016
1.00123
1.00107
1.00093
1.00082
1.00073
1.00066
1.0006
1.00055
1.0005
1.00046
1.00043
1.0004
1.00038
1.00037
0.010257
0.0308357
0.051616
0.0726909
0.0941543
0.116099
0.138476
0.16131
0.184681
0.208288
0.231988
0.255844
0.279669
0.303234
0.326312
0.348699
0.370238
0.390823
0.410395
0.428936
0.446461
0.462906
0.478205
0.492503
0.505802
0.518134
0.529656
0.540347
0.550289
0.5596
0.568339
0.576573
0.5843739999999999
0.591809
0.598918
0.605766
0.612429
0.6189480000000001
0.625364
0.631715
0.638022
0.644306
0.65059
0.656892
0.663225
0.669585
0.675961
0.682348
0.688756
0.695375
0.702447
0.709854
0.7173929999999999
0.725024
0.732742
0.740579
0.748571
0.756736
0.765088
0.773657
0.7825
0.7917110000000001
0.801353
0.81143
0.821913
0.832795
0.844168
0.856081
0.868491
0.881329
0.894567
0.908064
0.921669
0.935459
0.949281
0.962788
0.975347
0.985995
0.9938439999999999
0.998402
1.00036
1.00107
1.00135
1.0015
1.0016
1.0017
1.00179
1.00187
1.00194
1.00203
1.00214
1.00246
1.0024
1.00179
1.00141
1.00125
1.0011
1.001
1.0009
1.00083
1.00076
1.0007
1.00065
1.0006
1.00056
1.00052
1.00049
1.00047
0.0102459
0.0308026
0.0515608
0.0726136
0.09405520000000001
0.115979
0.138336
0.161152
0.184507
0.208102
0.231796
0.255649
0.279475
0.303047
0.326135
0.348537
0.370096
0.390703
0.4103
0.42887
0.446426
0.462904
0.478238
0.492572
0.5059090000000001
0.518281
0.529841
0.54057
0.550545
0.559885
0.568645
0.576894
0.584707
0.592151
0.5992690000000001
0.606122
0.6127860000000001
0.619306
0.625723
0.6320750000000001
0.638387
0.644687
0.651
0.6573369999999999
0.663701
0.670085
0.676471
0.682829
0.689149
0.695632
0.702569
0.709881
0.7173620000000001
0.724942
0.732603
0.740383
0.748322
0.756424
0.764718
0.77322
0.781962
0.791058
0.800525
0.810338
0.820509
0.8310689999999999
0.842097
0.8536550000000001
0.865765
0.8783879999999999
0.8915
0.904937
0.918573
0.932432
0.946338
0.960018
0.972902
0.984038
0.992483
0.997714
1.00018
1.0011
1.00147
1.00164
1.00175
1.00186
1.00195
1.00203
1.0021
1.00219
1.00231
1.00261
1.00256
1.00195
1.00157
1.00142
1.00127
1.00117
1.00107
1.00099
1.00092
1.00086
1.0008
1.00074
1.00069
1.00065
1.00061
1.00058
0.0102319
0.0307605
0.0514903
0.0725148
0.09392789999999999
0.115823
0.138152
0.160941
0.184269
0.207839
0.231509
0.255339
0.279143
0.302694
0.325762
0.348145
0.369684
0.390271
0.409847
0.428394
0.445926
0.462378
0.477686
0.491994
0.505306
0.517655
0.5291979999999999
0.539916
0.549887
0.559229
0.567999
0.576264
0.584099
0.591573
0.598731
0.605636
0.612359
0.618931
0.625387
0.631769
0.638111
0.64444
0.650783
0.657152
0.6635490000000001
0.669964
0.676381
0.682781
0.689138
0.695643
0.702584
0.709867
0.717294
0.724831
0.73246
0.740198
0.748079
0.756107
0.764298
0.772713
0.781402
0.790403
0.7997
0.809311
0.8192739999999999
0.829578
0.840273
0.85145
0.863217
0.875577
0.8885110000000001
0.901907
0.915611
0.92957
0.943569
0.957371
0.9704930000000001
0.9820410000000001
0.991061
0.996931
0.999889
1.00106
1.00153
1.00173
1.00186
1.00197
1.00207
1.00216
1.00223
1.00232
1.00244
1.00275
1.00271
1.00211
1.00173
1.00158
1.00144
1.00134
1.00125
1.00116
1.00109
1.00102
1.00095
1.00089
1.00083
1.00077
1.00072
1.00068
0.0102073
0.0306866
0.051367
0.0723418
0.0937048
0.115549
0.137828
0.160565
0.183843
0.207364
0.230987
0.254772
0.278534
0.302046
0.325078
0.347429
0.368937
0.389496
0.409044
0.427563
0.445065
0.461487
0.476763
0.491039
0.504319
0.516639
0.528156
0.538853
0.54881
0.558141
0.566904
0.575165
0.582999
0.590477
0.597645
0.604567
0.611308
0.617899
0.624382
0.6308009999999999
0.637174
0.643521
0.649872
0.656251
0.662666
0.669108
0.675561
0.68201
0.688453
0.695089
0.70217
0.709556
0.7170530000000001
0.724656
0.732333
0.740046
0.747837
0.755789
0.763939
0.772304
0.780905
0.789756
0.798856
0.808257
0.8180190000000001
0.828162
0.838664
0.849532
0.860945
0.87299
0.8856309999999999
0.898894
0.91272
0.926797
0.94082
0.954736
0.9680800000000001
0.979965
0.989533
0.996039
0.999507
1.00096
1.00153
1.00178
1.00192
1.00203
1.00214
1.00224
1.00232
1.00242
1.00254
1.00286
1.00284
1.00226
1.00188
1.00174
1.00161
1.00151
1.00143
1.00135
1.00127
1.00119
1.00112
1.00104
1.00097
1.0009
1.00084
1.00079
0.0101726
0.0305825
0.0511931
0.0720977
0.09339
0.115163
0.13737
0.160036
0.183243
0.206694
0.23025
0.253971
0.277672
0.301128
0.324109
0.346415
0.367885
0.388413
0.40794
0.426446
0.443945
0.460373
0.475662
0.489956
0.503256
0.515594
0.527124
0.537826
0.54778
0.557099
0.565839
0.57407
0.5818680000000001
0.589307
0.596437
0.6033230000000001
0.610033
0.616606
0.623088
0.629518
0.6359089999999999
0.642288
0.648682
0.655105
0.661556
0.668026
0.674503
0.680975
0.6874440000000001
0.694113
0.70123
0.708662
0.716211
0.7238520000000001
0.731557
0.739316
0.7471640000000001
0.755156
0.763311
0.771636
0.780152
0.788895
0.797915
0.807244
0.816872
0.826829
0.837116
0.847788
0.858943
0.870681
0.883041
0.896095
0.9098889999999999
0.92399
0.938035
0.952052
0.965587
0.977796
0.987888
0.995
0.998984
1.00076
1.00147
1.00177
1.00193
1.00206
1.00217
1.00228
1.00238
1.00249
1.00262
1.00296
1.00296
1.0024
1.00204
1.00191
1.00179
1.00171
1.00163
1.00155
1.00147
1.00139
1.0013
1.0012
1.00111
1.00103
1.00095
1.00089
0.0101363
0.0304734
0.0510109
0.07184210000000001
0.0930603
0.114758
0.13689
0.159481
0.182612
0.205989
0.229471
0.25312
0.27675
0.300137
0.323052
0.345295
0.366709
0.387185
0.406665
0.425131
0.442597
0.458998
0.474268
0.488546
0.501833
0.514159
0.525676
0.536365
0.546303
0.555605
0.56433
0.57255
0.580345
0.587792
0.594938
0.601843
0.608575
0.6151720000000001
0.621678
0.628129
0.6345460000000001
0.640956
0.647384
0.653834
0.660309
0.666805
0.673319
0.67984
0.686352
0.693044
0.700162
0.707577
0.715087
0.7226630000000001
0.730315
0.738077
0.745959
0.753961
0.762111
0.7704569999999999
0.778989
0.787703
0.796677
0.805938
0.815466
0.825288
0.835429
0.845949
0.856907
0.868432
0.880659
0.893572
0.907165
0.921177
0.935289
0.949413
0.963096
0.97558
0.986134
0.993816
0.9983
1.00042
1.0013
1.00167
1.00186
1.002
1.00214
1.00227
1.00239
1.00252
1.00267
1.00303
1.00306
1.00254
1.0022
1.00209
1.002
1.00192
1.00186
1.00178
1.0017
1.0016
1.00149
1.00138
1.00126
1.00115
1.00106
1.00099
0.0101005
0.0303661
0.050832
0.07159119999999999
0.09273679999999999
0.114361
0.136418
0.158934
0.181988
0.205288
0.228694
0.252268
0.275823
0.299138
0.321984
0.344161
0.36551
0.385925
0.405345
0.423751
0.441156
0.457495
0.472702
0.486919
0.500147
0.51242
0.523894
0.534551
0.544471
0.55377
0.562505
0.570748
0.578574
0.5860570000000001
0.59324
0.600179
0.6069329999999999
0.6135389999999999
0.620048
0.626507
0.632937
0.639358
0.645796
0.652259
0.658755
0.665284
0.67183
0.6783709999999999
0.684895
0.691607
0.698766
0.706227
0.713759
0.72132
0.728938
0.736644
0.7444269999999999
0.752338
0.760469
0.768827
0.777362
0.786076
0.795017
0.8042280000000001
0.813699
0.823433
0.833448
0.843825
0.854698
0.8662029999999999
0.878379
0.891134
0.904498
0.918396
0.932522
0.946716
0.960564
0.973301
0.984247
0.992466
0.997454
0.9999209999999999
1.00099
1.00144
1.00167
1.00184
1.00201
1.00218
1.00233
1.00249
1.00268
1.00308
1.00316
1.00267
1.00237
1.0023
1.00223
1.00218
1.00213
1.00206
1.00197
1.00186
1.00172
1.00157
1.00142
1.00127
1.00116
1.00108
0.0100503
0.0302156
0.0505813
0.07124030000000001
0.09228550000000001
0.113809
0.135765
0.158181
0.181135
0.204339
0.227654
0.251141
0.274615
0.297857
0.320639
0.342761
0.364064
0.38444
0.403828
0.422208
0.43959
0.455911
0.471103
0.485308
0.498527
0.510795
0.522265
0.532921
0.542839
0.552135
0.560866
0.569101
0.576911
0.5843660000000001
0.591512
0.598413
0.605133
0.6117089999999999
0.61819
0.624625
0.631035
0.637442
0.643871
0.650324
0.656805
0.66332
0.669856
0.676391
0.682902
0.68959
0.696746
0.704237
0.711808
0.719411
0.727071
0.7348
0.7425890000000001
0.7504690000000001
0.75853
0.766824
0.775328
0.784034
0.792969
0.802155
0.811558
0.821171
0.831085
0.841417
0.852306
0.863854
0.876013
0.888645
0.90178
0.91554
0.929674
0.943858
0.957801
0.970822
0.982159
0.990882
0.996376
0.99921
1.00049
1.00104
1.00133
1.00155