/*--------------------------------*- C++ -*----------------------------------*\
| =========                 |                                                 |
| \\      /  F ield         | OpenFOAM: The Open Source CFD Toolbox           |
|  \\    /   O peration     | Version:  v1812                                 |
|   \\  /    A nd           | Web:      www.OpenFOAM.com                      |
|    \\/     M anipulation  |                                                 |
\*---------------------------------------------------------------------------*/
FoamFile
{
    version     2.0;
    format      ascii;
    class       volVectorField;
    location    "1792";
    object      U;
}
// * * * * * * * * * * * * * * * * * * * * * * * * * * * * * * * * * * * * * //

dimensions      [0 1 -1 0 0 0 0];


internalField   nonuniform List<vector> 
44064
(
(0.01995487022930176 2.071312555701942e-05 9.325973356883399e-20)
(0.05939314502931902 6.174890876495706e-05 2.560988736597291e-19)
(0.09866537071744513 0.0001016459549962354 4.54616837294093e-19)
(0.1380354349701539 0.0001406774517040688 6.527506018046e-19)
(0.1776630638273991 0.0001791419219168293 8.756885383871653e-19)
(0.2174951725516623 0.0002172476284749382 1.125605752468514e-18)
(0.2571672786763665 0.0002551439125219382 1.379287451039581e-18)
(0.2960339533337931 0.0002929529998458302 1.610755366276744e-18)
(0.3333831047320991 0.0003308102851949848 1.838482367480001e-18)
(0.3686953941811308 0.0003688553035856554 2.017565746180851e-18)
(0.4018103439626799 0.0004072224433943725 2.190347042875052e-18)
(0.4329296929839136 0.0004462088251866506 2.35775230616864e-18)
(0.462275397249867 0.0004860383481858099 2.520799978819397e-18)
(0.4899555031698494 0.0005267887302718781 2.679918028744254e-18)
(0.5160877784187963 0.0005686296703910019 2.802508154181861e-18)
(0.5407990031449195 0.0006117265863781881 2.923056821708409e-18)
(0.5642170224125966 0.0006562244830043461 3.041793653945698e-18)
(0.5864707666538543 0.0007022703199301177 3.158649478902333e-18)
(0.6076803656866311 0.0007500076161836275 3.273138193649917e-18)
(0.6279497337436237 0.0007995642928268562 3.328053667341676e-18)
(0.6473710181364958 0.0008510678208212634 3.37720058158247e-18)
(0.6660254899365761 0.0009046401672749729 3.598312760356741e-18)
(0.6839840774402073 0.0009603959410481393 3.380061642301492e-18)
(0.7013079835039381 0.001018441764578455 3.389446251719039e-18)
(0.7180493418954009 0.001078875280013653 3.343123878240737e-18)
(0.7342519163131805 0.001141783806000402 3.2970867467248e-18)
(0.7499518150251141 0.001207242761141705 3.202225334082847e-18)
(0.7651781799402102 0.001275313777573664 3.110876951681648e-18)
(0.7799538482111208 0.001346042611351569 3.024251445403773e-18)
(0.7942959635750575 0.001419456738468724 2.943010746313733e-18)
(0.8082165302049971 0.00149556262415715 2.867863590288194e-18)
(0.8217228828388528 0.001574342667016461 2.799491904638546e-18)
(0.8348179663140388 0.001655751831179042 2.628893714218716e-18)
(0.8475001638630252 0.00173971417808576 2.461172392949622e-18)
(0.8597622247811852 0.001826120510724635 2.29671210180218e-18)
(0.8715888155351971 0.001914830885663654 2.135617927549547e-18)
(0.8829528777682392 0.002005685557445634 1.978818237529788e-18)
(0.8938132619251112 0.00209850438900168 1.829822257766649e-18)
(0.9041208587934965 0.002192998467028883 1.445899946933503e-18)
(0.9138463578752483 0.002288584180145118 1.075756099534419e-18)
(0.9230435814387391 0.002385191652626073 7.536666819419993e-19)
(0.9317704312317693 0.002482640614498508 -1.063520644070054e-20)
(0.940032546667983 0.002580081783456083 -7.914097296196234e-19)
(0.9478409761566702 0.002677006601486923 -1.31543932110751e-18)
(0.9552068217721537 0.002772816611819941 -1.236262861728428e-18)
(0.9621364773329153 0.002866796459957101 -1.893905911500762e-18)
(0.9686284607647165 0.002958144740395115 -1.90381044776749e-18)
(0.9746713236068566 0.003045986674628163 -1.96172617081482e-18)
(0.9802426671572456 0.003129374387412404 -2.120602223553936e-18)
(0.985309833904485 0.003207299080163467 -2.443219668716829e-18)
(0.98983292310802 0.003278746915698878 -3.043412618954996e-18)
(0.9937699674509635 0.003342818982995323 -4.168013263503618e-18)
(0.9970826695506791 0.00339887438926622 -4.197102715252419e-18)
(0.9997403767231993 0.003446399128896706 -4.857195720507397e-18)
(1.001723885394559 0.003484950682230706 -7.013740540124771e-18)
(1.00303485160791 0.003514346554055288 -4.621754357688209e-18)
(1.003708151757739 0.00353429224581105 -2.129835173167826e-18)
(1.003819831847741 0.003544875145089874 9.279750173737089e-19)
(1.003491727087989 0.003546625990029947 9.077083504736509e-18)
(1.002890367618984 0.003540533723927705 1.436674944355108e-17)
(1.002213047543218 0.003528093855270351 2.373255024707707e-17)
(1.00164738519037 0.003511204667915867 1.163291205538648e-17)
(1.001308802472114 0.003491673749971692 3.187619051354977e-18)
(1.001201946776543 0.003470670131472561 2.371439902478445e-18)
(1.001238069984254 0.003448519891206234 2.293664503321488e-18)
(1.001299435471546 0.003424812946635118 -1.372620013675143e-17)
(1.001319702725697 0.003398864229495108 7.126779293095252e-18)
(1.00130534506099 0.003370260904501528 -2.630771569595506e-20)
(1.001284625391461 0.00333892131892763 -1.705011161127288e-17)
(1.001267411621131 0.003304793767867074 4.341108120101379e-18)
(1.001251042865441 0.003267717129088549 -2.059766362764815e-17)
(1.001233334071664 0.003227480100685768 -4.637382962865493e-18)
(1.001214142533784 0.003183877524975429 -3.69791713538931e-18)
(1.001193608422135 0.003136712537388458 -3.026534181009792e-18)
(1.001171710557605 0.00308578929357111 1.272250441313423e-18)
(1.001148391949996 0.003030914363948897 -2.884234387181863e-17)
(1.00112361075882 0.002971900674244356 -1.674273851482011e-17)
(1.001097337381446 0.00290857090727072 2.457192246204349e-17)
(1.00106955330612 0.002840761014093674 3.709807386716113e-17)
(1.001040253539569 0.002768324169106271 1.653892842778862e-17)
(1.001009449269423 0.002691135077241775 -1.02776767881395e-17)
(1.000977170513681 0.002609094524624986 7.82434995795765e-18)
(1.000943468844012 0.002522134052424298 1.162299786310652e-17)
(1.000908420128516 0.002430220586072842 2.766522052573387e-17)
(1.000872127196998 0.002333360790851907 -2.36177718875925e-17)
(1.000834722325493 0.002231604854985264 4.971958946622211e-17)
(1.000796369420776 0.002125049323514221 -2.088610062413906e-17)
(1.000757265779206 0.002013838517087322 -7.230345268414553e-17)
(1.000717643298453 0.001898163972241436 5.65624649943927e-17)
(1.000677769044104 0.001778261231961167 -3.077432305436864e-17)
(1.000637945117607 0.00165440319534905 -1.273802982076288e-17)
(1.000598507858442 0.001526889096476225 1.030397550171194e-16)
(1.000559826543564 0.001396028011326138 6.662029546003206e-17)
(1.000522301951878 0.00126211555939008 4.020675320960566e-17)
(1.000486365455584 0.001125402119999308 2.239873697596422e-17)
(1.000452479740039 0.0009860503239431165 -5.246086207226563e-17)
(1.00042114289449 0.0008440786613854148 3.221869028837503e-17)
(1.000392898581809 0.0006992866083740366 4.647334467657867e-17)
(1.000368356473817 0.0005511541045981333 6.475659460841607e-17)
(1.000348229664898 0.0003987012902230552 3.628250912355888e-17)
(1.000333400738528 0.0002402824929689173 -4.814050871909042e-17)
(1.000325034614144 7.332137657281474e-05 5.613691448252582e-17)
(1.000324745737484 -0.0001058441909162958 -6.67280818406079e-17)
(1.0003348089233 -0.0003018733179488697 -2.32845301160658e-17)
(1.000358120952514 -0.0005281753544374793 -8.444118279558068e-17)
(1.000414560609317 -0.0008577227163909871 -7.943760676536919e-17)
(1.004017304001593 -0.001504925643315702 1.438486108597947e-17)
(0.9926608950298316 -0.001582754741875471 -2.060981973284116e-17)
(0.01426209526362615 2.183326657948558e-08 -3.495714183233566e-20)
(0.04289250586388114 3.075215667026734e-07 -1.510455480779876e-21)
(0.07184387631023936 8.768681220171069e-07 -1.685839739306966e-19)
(0.1013160877980046 1.744486841119441e-06 -2.597621897704784e-19)
(0.1314550079710381 2.913055523034295e-06 -3.578594705020189e-19)
(0.1622749683329607 4.395560536622915e-06 -3.475457577299692e-19)
(0.1935604871047176 6.209562539741662e-06 -4.338073939711456e-19)
(0.2248217209409596 8.369810215574325e-06 -7.342528620284617e-19)
(0.2553951400590591 1.0885600543186e-05 -7.165241850279086e-19)
(0.2846652323366894 1.376521171268016e-05 -6.667302666519043e-19)
(0.3122454442320476 1.702572106298021e-05 -8.060741653540261e-19)
(0.3380101040789414 2.06996838347427e-05 -7.999370826052734e-19)
(0.3620214508227779 2.482367176269725e-05 -7.967287006313949e-19)
(0.3845007883412767 2.945513818087874e-05 -7.957115016747374e-19)
(0.4056718828797923 3.4658018790706e-05 -7.621123337796441e-19)
(0.4256726774645286 4.048565922898228e-05 -7.314883331333593e-19)
(0.444623843922952 4.700320413336262e-05 -7.027098836836145e-19)
(0.4626425745654639 5.428594525437885e-05 -6.451612464436424e-19)
(0.4798414219284668 6.241768378229313e-05 -7.073128400865909e-19)
(0.4963260829342807 7.149124617927596e-05 -5.486546127648554e-19)
(0.5121943864981556 8.160809370256103e-05 -4.839327574134977e-19)
(0.5275358794442027 9.287700886497033e-05 -3.725115294159174e-19)
(0.54243193237454 0.0001054154211668455 -2.658206023122903e-19)
(0.5569561489030754 0.0001193488748169976 -1.18454086234404e-19)
(0.571174911483168 0.0001348139066736013 2.189089910253137e-20)
(0.5851479636530176 0.0001519586023028921 1.54446613219554e-19)
(0.5989289680706639 0.0001709429421527401 2.779080731428737e-19)
(0.6125660055254313 0.0001919391327526808 3.897394524480639e-19)
(0.6261019960751464 0.0002151318347646603 4.853219718326948e-19)
(0.6395750318083542 0.0002407182010746571 6.428342185630949e-19)
(0.6530186134163981 0.0002689076711382361 6.982595749568382e-19)
(0.6664617819157086 0.0002999214678274193 7.409655297526482e-19)
(0.6799291348966419 0.000333991724163379 7.730655938854081e-19)
(0.6934407182757345 0.0003713601154029417 7.956821377794993e-19)
(0.7070117982717894 0.0004122757296443549 8.099170641396569e-19)
(0.7206525558154936 0.0004569915969847746 8.17508852021742e-19)
(0.7343678138242126 0.0005057588781844697 9.167733339811975e-19)
(0.7481569873606013 0.0005588178511823896 1.030790836579963e-18)
(0.7620144574177231 0.000616387078802739 8.926649076710038e-19)
(0.7759303587003091 0.000678654500367604 7.795803485956684e-19)
(0.7898912456025845 0.0007457780132685114 9.204390194830258e-19)
(0.8038796595643166 0.0008178732611155795 7.29793763199848e-19)
(0.8178730818919984 0.0008950078926996569 5.888969817062755e-19)
(0.8318433520387583 0.000977184149316593 5.004982755108741e-19)
(0.8457565908888887 0.001064331205295681 4.998827699990448e-19)
(0.8595741087132482 0.001156291976557485 -1.173849594233836e-19)
(0.8732548668744327 0.001252798948493516 -1.892009908405755e-18)
(0.8867588408245008 0.001353448054490794 -1.932735350551901e-18)
(0.9000462994499437 0.001457710048714612 -3.289269455931774e-18)
(0.9130594348832647 0.001564987210265465 -4.814188915651609e-18)
(0.9256777732209963 0.001674601470582719 -5.95382967970203e-18)
(0.9376814881324497 0.001785510807664047 -5.976120091051425e-18)
(0.948807029753029 0.00189555544695503 -6.142671426768456e-18)
(0.9589853337768326 0.00200267850975394 -7.405880671259465e-18)
(0.9683954986402804 0.002106501931582364 -8.944045971514427e-18)
(0.9770980333680719 0.002205071961479656 -8.152803733916297e-18)
(0.9849384798987729 0.002294998169124481 -7.080026679756708e-18)
(0.9917468120891878 0.002374659554449868 -1.953122026490923e-18)
(0.9973546212936117 0.002442359707734786 4.894251127329547e-18)
(1.001619808925521 0.002496711552878017 1.280117829635138e-17)
(1.004471846489018 0.002536509208114319 2.248490360540415e-17)
(1.005966496596601 0.002561178032000641 1.753594606829249e-17)
(1.006329659345239 0.002571628866081464 8.169020165113051e-18)
(1.005969196510334 0.002570525992398041 -1.197961552734089e-17)
(1.005415117336459 0.002562408459215224 -1.302815790267426e-17)
(1.005091871322487 0.002552577440277837 -5.245836619376464e-17)
(1.005047129758744 0.002543775740516431 5.577582661023683e-19)
(1.005076660701212 0.002535486040277084 3.997070454104411e-18)
(1.00505997547918 0.00252676131476616 -1.034650965796597e-16)
(1.005014332113116 0.002517436421711955 -3.315830983482255e-18)
(1.004967018073547 0.002507543240387287 -3.494944705812151e-17)
(1.004919543487361 0.002497010967414948 -1.88076718470423e-17)
(1.004868724021455 0.002485719926274606 -5.235512245403999e-18)
(1.004813904914917 0.002473536129724171 3.337469071002773e-18)
(1.004755084468871 0.002460303953138791 2.525676196826217e-18)
(1.004692106645529 0.002445839028060275 -1.154429867413844e-16)
(1.004624769650019 0.002429925593605518 2.925192632222116e-17)
(1.004552890219876 0.002412313443641591 2.125096909399258e-17)
(1.004476304817195 0.002392714253177686 1.260822166153368e-16)
(1.004394872378838 0.002370798041449001 -5.925934007153092e-17)
(1.00430848126426 0.002346189847232057 -1.755711372703161e-16)
(1.00421705720478 0.002318466696654073 -3.996140914806617e-17)
(1.004120572140641 0.002287155070705241 2.277096193421358e-16)
(1.004019054088962 0.002251729097789328 2.792404849244392e-16)
(1.003912598032666 0.002211609714665766 -9.27593036524097e-17)
(1.00380137778848 0.002166165055664379 7.934990498799335e-17)
(1.003685658756834 0.002114712320501954 2.47024179912951e-16)
(1.003565811444662 0.002056521341501647 4.181988864523818e-16)
(1.003442325601649 0.00199081999855797 4.179638229010769e-16)
(1.003315824821082 0.00191680151086993 5.2738537201286e-16)
(1.00318708148242 0.001833633456110436 3.696172944207457e-16)
(1.003057032026613 0.001740468123694537 7.177621174738935e-16)
(1.002926792774501 0.001636453496984166 4.58611268623853e-16)
(1.002797676896912 0.00152074379588273 5.366945228048431e-16)
(1.00267121380932 0.00139250813318951 4.349986581182335e-16)
(1.002549173318897 0.001250935507286539 4.271232569831785e-16)
(1.002433598496369 0.001095234073900387 6.462520341097344e-16)
(1.002326853771184 0.0009246226418878534 2.382547929844133e-16)
(1.002231698386076 0.0007383154562491641 2.345219660939662e-16)
(1.002151400340948 0.0005355117384550022 3.38502747582171e-16)
(1.00208991702991 0.0003153808019059184 -1.449123843929997e-17)
(1.002052203957893 7.684014031029626e-05 2.593285324889706e-16)
(1.002044720678738 -0.0001821045773386055 2.83435623226285e-17)
(1.002075525662563 -0.0004592350228879414 2.227567755816968e-16)
(1.002143207971335 -0.0007202757480276372 -1.161577773519005e-16)
(1.002396109435199 -0.0009677291958480809 -1.239627953325551e-16)
(1.012787789762397 -0.002122664011450442 -1.962930261276862e-17)
(0.9798525089336551 -0.003095709147493041 -6.061578817362736e-18)
(0.01342481983840859 5.114988862766466e-09 -1.091225845864541e-20)
(0.04037040483313487 7.765809675972058e-08 -3.423837725892075e-20)
(0.06760422626791662 2.269710924026139e-07 3.481223296642947e-20)
(0.09530793947711634 4.607264906697947e-07 -2.437226974757307e-19)
(0.1236222889427203 7.843288789483253e-07 -4.311767410813571e-20)
(0.1525861395435386 1.206152005762407e-06 -2.155138677281576e-19)
(0.1820536933479845 1.735375187728742e-06 -3.547472457513892e-19)
(0.2116410164236913 2.37876131525626e-06 -2.758093551387496e-19)
(0.2407794569789892 3.138583676734226e-06 -3.175457006921534e-19)
(0.2688860497233479 4.013437696924994e-06 -3.74701817101524e-19)
(0.2955392390733982 5.001528695953174e-06 -3.559099857687626e-19)
(0.3205455284232287 6.103602068488477e-06 -5.586899261943315e-19)
(0.3438998890453794 7.322334829958686e-06 -6.226804899409082e-19)
(0.3657611651991423 8.66759295322595e-06 -6.614459903969652e-19)
(0.3863197607280008 1.015271418504993e-05 -8.046198185574466e-19)
(0.4056973460962104 1.179138714771189e-05 -6.136861135658134e-19)
(0.4239909214801706 1.360010100688212e-05 -8.092612838457023e-19)
(0.4412957519481623 1.5599773249417e-05 -7.090628531737649e-19)
(0.4577062391840885 1.781553643993577e-05 -8.969427018396831e-19)
(0.4733169637742875 2.027638476493376e-05 -1.06609169724858e-18)
(0.4882310806406092 2.30151128670036e-05 -9.618305107754127e-19)
(0.5025689523885433 2.607343219268916e-05 -9.618701166161577e-19)
(0.5164267785302973 2.949590251306319e-05 -9.912525042975844e-19)
(0.5298656168210895 3.332813144136279e-05 -1.025036865506673e-18)
(0.5429393577222419 3.762455924048002e-05 -8.519079655961308e-19)
(0.5556959068686144 4.244836368243092e-05 -1.349542144142355e-18)
(0.5681781926177232 4.787267320614994e-05 -1.24493612681264e-18)
(0.580425014501479 5.398214713895887e-05 -1.568495392011868e-18)
(0.5924717513288595 6.087469117668789e-05 -1.247987742822799e-18)
(0.6043509493787408 6.866330347934706e-05 -1.323218183621473e-18)
(0.6160928080387683 7.74780754506538e-05 -1.561822863926572e-18)
(0.6277255780335415 8.746834208530534e-05 -1.59075795524393e-18)
(0.6392758853487533 9.880494529624326e-05 -1.205001621534078e-18)
(0.6507689925256845 0.0001116825208654754 -2.029930092602734e-18)
(0.6622290084650823 0.0001263216945459579 -1.787333867052188e-18)
(0.6736790583496051 0.0001429713831610949 -1.546379210849578e-18)
(0.6851414269310322 0.0001619122253731191 -1.969500898603198e-18)
(0.6966376916846242 0.0001834609921287037 -2.005630992551879e-18)
(0.7081888691586711 0.0002079597978296817 -2.154247101366114e-18)
(0.7198247756036644 0.0002357559563828086 -2.420299911661962e-18)
(0.7316076585063419 0.0002672761152780437 -2.701099405087701e-18)
(0.7436061942810922 0.0003030013268677524 -3.002048720451253e-18)
(0.7558595049553548 0.0003433934394577476 -3.321263913085584e-18)
(0.7683873981404502 0.0003889547891641135 -3.648990428225514e-18)
(0.7811972462652444 0.0004402185290491274 -3.73663171147323e-18)
(0.7942879519902796 0.00049773460454531 -4.199109188520316e-18)
(0.8076514797515816 0.0005620173819263673 -4.634962115029822e-18)
(0.8212724058322822 0.0006335405411418963 -5.302804263543091e-18)
(0.8351255297735168 0.0007126863948470071 -5.920679330250602e-18)
(0.8491715874661236 0.0007997397527849787 -8.551900273307922e-18)
(0.8633531073109921 0.0008948221764843195 -5.885285199375732e-18)
(0.8775959869533054 0.0009977302011893521 -5.82632934076506e-18)
(0.8918228344376922 0.001107769818578564 -2.520699462338469e-18)
(0.9059708183632824 0.001223902377966126 -5.8010617823357e-18)
(0.919973610125948 0.001345029409612864 -4.19120215277264e-18)
(0.9336779787335827 0.001469917839249275 1.341789402051689e-18)
(0.9467691446741422 0.001596636350629128 -8.61818658013043e-19)
(0.9588560143371128 0.001721112268531615 -1.833624826644951e-18)
(0.9698575372250546 0.001840563265677226 -1.008323646646068e-19)
(0.9798855406752625 0.001953536514451131 4.73960762936833e-18)
(0.9887902630305299 0.002055599842264268 -8.196382766042991e-18)
(0.9962366694461341 0.002141854334803756 -6.837163587277581e-18)
(1.001895912806156 0.002208864650636879 9.88809498985546e-18)
(1.005555807305361 0.002253623121894235 3.813285381511085e-17)
(1.007287156551621 0.002274840376362114 -4.793620741071902e-17)
(1.007580063800929 0.002275496982720433 9.96334040166381e-18)
(1.007259864658131 0.00226337966913142 -2.656920523258516e-17)
(1.007032887831918 0.002247750304137546 4.017474386517345e-17)
(1.007004146889102 0.002232300447195783 6.092415807965209e-17)
(1.00699156388272 0.00221584913283131 3.430646196295957e-17)
(1.006951607500259 0.002197811634153244 -4.029059804275636e-17)
(1.006905884384496 0.002178260095092432 1.112007132320455e-16)
(1.006858870187036 0.002157150970203454 -5.556803480311811e-17)
(1.006808507797727 0.002134381654397732 -3.143210240496483e-17)
(1.006754235574336 0.002109852601340409 4.504594123275235e-17)
(1.006695954684197 0.002083463100751246 2.191956010205836e-16)
(1.006633465115893 0.002055108318070944 2.228790945515306e-16)
(1.006566544145864 0.002024678871854577 6.774551397932599e-19)
(1.006494981098384 0.001992059930402643 -2.347433653544809e-17)
(1.006418577633496 0.001957129747209114 -2.195852147795382e-16)
(1.006337151865657 0.001919757596817395 3.051882796853384e-16)
(1.006250545067505 0.001879800996014934 3.342656077222009e-19)
(1.006158629433151 0.001837102091127865 -8.352525351962968e-17)
(1.006061317163643 0.001791483073380351 4.202945376006154e-17)
(1.005958571089052 0.001742740497530868 -1.402316209311029e-16)
(1.005850417027101 0.001690638417729234 -1.392527303250909e-16)
(1.005736958064492 0.001634900304610729 1.200932786050282e-17)
(1.005618390991993 0.001575199789988902 3.02945946363417e-16)
(1.00549502512797 0.001511150396057284 3.070769945188591e-16)
(1.005367303803824 0.001442294549422238 4.141683763186296e-16)
(1.005235828834713 0.001368092353156484 4.164648310724102e-16)
(1.005101388380528 0.001287910782677205 -7.842584290845436e-17)
(1.004964988746133 0.001201014174415369 -1.928474875024132e-17)
(1.004827890901152 0.001106557045256236 -1.195252743025253e-17)
(1.00469165289678 0.001003580403359881 3.724158048379765e-17)
(1.004558179979476 0.0008910128131177702 -6.208923760331073e-18)
(1.004429785206801 0.0007676774545953705 -2.160832700804097e-16)
(1.004309265058852 0.0006323045712337601 -4.363884449521377e-16)
(1.004199997296416 0.0004835432029068297 -7.098854900918544e-17)
(1.004106070299572 0.0003199838749628489 3.296153615917052e-17)
(1.004032449649805 0.0001403199515134378 2.430346523903561e-16)
(1.003985220613205 -5.640391325495973e-05 4.20607234360166e-17)
(1.003972244201134 -0.000273865102284677 3.436088245141355e-16)
(1.004003696032684 -0.0005262717277277297 4.833607926939737e-16)
(1.004063944690696 -0.0007800903531047646 4.151933794652895e-16)
(1.004465006794725 -0.0007983557594898791 4.715737848790573e-16)
(1.019995881842419 -0.001845515722494444 1.685310220340977e-16)
(0.9687554602642848 -0.003924696120806504 -1.739832359337858e-16)
(0.0128542867541178 3.869450579851948e-09 1.761725276387954e-19)
(0.03865481570326938 5.884419681599643e-08 5.15123323345974e-19)
(0.06473158977330905 1.718305655305844e-07 9.108513897733939e-19)
(0.09126000897011895 3.482251006730703e-07 1.182599144826416e-18)
(0.1183808400140317 5.915255972911732e-07 1.541342709340865e-18)
(0.1461474633745428 9.074070638762749e-07 1.939973384027821e-18)
(0.1744512693618778 1.302361296209362e-06 2.463921970522751e-18)
(0.2029655674112967 1.781590846848041e-06 2.70476075820438e-18)
(0.2311771971948988 2.34748492173927e-06 3.040860958565043e-18)
(0.2585292162073766 2.999806856181903e-06 3.378304594968439e-18)
(0.2845891370731185 3.737615482046762e-06 3.680182712846718e-18)
(0.3091310541934601 4.561235643678814e-06 3.853493644360206e-18)
(0.3321146739539952 5.47200229341818e-06 4.243136795226018e-18)
(0.3536644915911552 6.475815235075234e-06 4.478031254560182e-18)
(0.373957462703095 7.580703398508939e-06 4.707791917284818e-18)
(0.3931127239505982 8.794624374721167e-06 4.909918767405871e-18)
(0.4112173052981171 1.012557203977241e-05 5.106522588117028e-18)
(0.4283568342722939 1.158361273023925e-05 5.298884923955935e-18)
(0.4446166984812693 1.318040088502611e-05 5.486573100156935e-18)
(0.4600807724296275 1.492924339272525e-05 5.666070805424877e-18)
(0.4748341653001756 1.684558015785429e-05 5.836364240935319e-18)
(0.4889748602827705 1.894978210270793e-05 6.109598618349729e-18)
(0.5026061981476376 2.126588900477485e-05 6.147143328121116e-18)
(0.515803833752524 2.382039923300379e-05 6.355468608484279e-18)
(0.5286181929764021 2.663875670075709e-05 6.536840681096863e-18)
(0.5410936726757287 2.975164059800627e-05 6.44507141333215e-18)
(0.5532696045192751 3.319387146375697e-05 6.779260986762199e-18)
(0.5651810875561823 3.70049329379635e-05 7.125332551145788e-18)
(0.5768597036977788 4.122979918808659e-05 6.993649460633564e-18)
(0.5883341330127284 4.591986178514325e-05 7.118258072109591e-18)
(0.5996306850387552 5.113396850022479e-05 7.067893423471231e-18)
(0.6107737605997083 5.693962253143583e-05 7.41904482175374e-18)
(0.6217862567308549 6.341436903737649e-05 7.189635895297979e-18)
(0.6326899253687788 7.064739066249842e-05 7.467429527843785e-18)
(0.6435056946578419 7.874134460928239e-05 7.123011833392078e-18)
(0.6542539600328912 8.781447556368263e-05 7.016854770819354e-18)
(0.6649548506164366 9.800293208678131e-05 7.338572581391758e-18)
(0.6756284747828345 0.0001094629368443433 6.732228652483124e-18)
(0.6862951467595472 0.0001223728162968969 7.371992158898611e-18)
(0.6969755934300014 0.000136940046215909 6.716886376775011e-18)
(0.7076910958681767 0.0001534179377605003 6.548957810139977e-18)
(0.7184634227765454 0.0001721133442557872 6.372926821043842e-18)
(0.7293146141418896 0.0001934036313017296 6.183414618786264e-18)
(0.7402667991693764 0.0002177394463193059 5.195258569050576e-18)
(0.7513420443430697 0.0002456449165442242 6.143019564678308e-18)
(0.7625622501441228 0.0002776338656936426 6.172559699415401e-18)
(0.7739960769790166 0.0003143552627629592 6.269083724311698e-18)
(0.7857380249226439 0.0003566041427438373 6.459828983622756e-18)
(0.7978422626147109 0.0004051378538417711 6.726544665220691e-18)
(0.8103350815484925 0.0004607802674197425 6.511752638924824e-18)
(0.8232241986900537 0.0005243389796148982 6.221666994495858e-18)
(0.8365047111339107 0.0005965513908951782 6.269208847554534e-18)
(0.8501611707503078 0.0006779986381188245 6.84139674614513e-18)
(0.8641652895966752 0.0007691113820626332 6.242684351260906e-18)
(0.8784709167562944 0.0008701410135857986 5.654606376478369e-18)
(0.8930096081071819 0.0009810053370493668 5.737065156893305e-18)
(0.9076881459673243 0.001101016148922853 1.011749888947804e-17)
(0.9223754851869302 0.001228691326655054 6.103579894301712e-18)
(0.9368564160704798 0.001361990480488295 6.736259103466926e-18)
(0.9507684459344227 0.001497755671707497 7.78912413737391e-18)
(0.9636476638450974 0.00163075934574115 1.212689829603958e-17)
(0.9753079446889962 0.001757142377457252 1.1821600785281e-17)
(0.9857662280997768 0.001874770334667349 -8.934394170147477e-18)
(0.9947303459313839 0.001977495723925627 2.710882046534223e-18)
(1.001659811152936 0.00205781359919523 2.497866591745562e-17)
(1.006125175524096 0.002110504479513491 -6.498920684614233e-18)
(1.008146317623644 0.002133243744887179 -1.015946948081038e-16)
(1.008467453624089 0.002131755844737744 -2.538336481682232e-17)
(1.008255769526866 0.002119202426003727 3.239841655607949e-17)
(1.008163074662071 0.002105461833356333 8.889802843356553e-17)
(1.008136246030317 0.0020911987522655 1.78944211652365e-17)
(1.00809652632224 0.002075484649266148 -6.820901516101219e-17)
(1.008050041410618 0.002058235920625266 5.70225376934474e-17)
(1.008000953334865 0.002039361612602705 1.627509261098207e-17)
(1.007948428515436 0.002018710762258334 2.076551343056195e-16)
(1.007892123543827 0.001996122460516416 -5.32800782946209e-17)
(1.007831906384402 0.001971422962877075 -1.927999466511123e-16)
(1.007767610742784 0.001944424856915205 -3.28810761895139e-17)
(1.007699076336181 0.001914927261850227 1.277838706051245e-16)
(1.007626161892555 0.001882715677959055 1.444808943898558e-16)
(1.00754874811044 0.001847561959793509 8.884917095386633e-17)
(1.007466743449826 0.001809224473934308 1.95653711968387e-17)
(1.007380091044473 0.001767448414052717 -2.680486687262261e-16)
(1.007288776400328 0.001721966222929693 1.608900061008964e-16)
(1.00719283602897 0.001672498039933083 1.85249345193681e-16)
(1.00709236711057 0.001618752047083932 -1.07050021237354e-16)
(1.006987538284813 0.001560424522355051 1.52350628501562e-16)
(1.006878601716638 0.001497199340158113 -1.281501823020585e-16)
(1.00676590664251 0.001428746584580637 -4.376505641446312e-17)
(1.006649914698208 0.001354719867447142 -2.279029974777654e-16)
(1.006531217464319 0.00127475188415273 -3.205527632648669e-16)
(1.006410556863516 0.001188447703648943 -4.458750982942967e-16)
(1.006288849310402 0.001095375303609735 -4.879689095598165e-16)
(1.006167214882977 0.00099505291778154 -7.40677105056965e-16)
(1.006047013299515 0.0008869328360133185 -7.875126217407955e-16)
(1.005929889181915 0.0007703814297502019 -7.902014638268666e-16)
(1.005817830028154 0.0006446562288703755 -5.711869737538801e-16)
(1.00571324166766 0.0005088828180911042 -6.164008001577802e-16)
(1.005619049233016 0.0003620208008338124 -5.819181544362099e-16)
(1.005538838489218 0.0002027575795161158 -3.493154577207331e-16)
(1.005477039192807 2.945939331814868e-05 5.619838852830179e-17)
(1.005439071335716 -0.0001583747383348876 6.091549192226192e-16)
(1.005431843106224 -0.0003596563631338254 4.232836662511523e-16)
(1.005465837293928 -0.0005992765557140975 5.868117908072594e-16)
(1.005515129123478 -0.0009168761109708205 2.797045513053648e-16)
(1.006115019373442 -0.0008508920237852961 2.664650221640707e-16)
(1.025465098442642 -0.001469552451573509 2.011089241149121e-16)
(0.9588797658077901 -0.004581072983327492 -9.394116117403071e-19)
(0.01246666086855119 2.990716251013289e-09 1.573598500558321e-19)
(0.03748901716399131 4.548700235019886e-08 4.732121022456331e-19)
(0.06277928761179156 1.328343168039787e-07 7.924469947228918e-19)
(0.0885085402119222 2.692087767943599e-07 1.117208168519631e-18)
(0.1148169946607963 4.573284404757143e-07 1.449246677817943e-18)
(0.141766264880961 7.016419870247621e-07 1.789304685581924e-18)
(0.1692700492550364 1.007362567208794e-06 2.136240863692156e-18)
(0.1970373458516059 1.378933578031866e-06 2.486329923020462e-18)
(0.2245915550537664 1.818838651384098e-06 2.833475167853316e-18)
(0.2513953327854856 2.327579059598683e-06 3.170848127720011e-18)
(0.2770120052499392 2.904981077828276e-06 3.492909093658339e-18)
(0.3011960928817504 3.55171642875338e-06 3.796564559763567e-18)
(0.323884480080763 4.269406087238275e-06 4.081088447842822e-18)
(0.3451730651016647 5.063108347537541e-06 4.347955828885195e-18)
(0.3652296335467272 5.939794807044868e-06 4.5998773402482e-18)
(0.3841771959294669 6.907132720259935e-06 4.839654576707594e-18)
(0.4020978344989559 7.971973104942842e-06 4.96800350146007e-18)
(0.4190720031112974 9.142964750176204e-06 5.298882494516089e-18)
(0.4351807389070751 1.043008493645179e-05 5.519132317370878e-18)
(0.4505037446003425 1.184457158760022e-05 5.729546844143766e-18)
(0.4651201990064386 1.339891375377152e-05 5.929681865367117e-18)