/*--------------------------------*- C++ -*----------------------------------*\
| =========                 |                                                 |
| \\      /  F ield         | OpenFOAM: The Open Source CFD Toolbox           |
|  \\    /   O peration     | Version:  v1812                                 |
|   \\  /    A nd           | Web:      www.OpenFOAM.com                      |
|    \\/     M anipulation  |                                                 |
\*---------------------------------------------------------------------------*/
FoamFile
{
    version     2.0;
    format      ascii;
    class       volVectorField;
    location    "5702";
    object      U;
}
// * * * * * * * * * * * * * * * * * * * * * * * * * * * * * * * * * * * * * //

dimensions      [0 1 -1 0 0 0 0];


internalField   nonuniform List<vector> 
44064
(
(0.01915133999799074 2.074771409462996e-05 2.552441907047269e-20)
(0.05698096384930743 6.180402997630463e-05 7.688739064667925e-20)
(0.09463996777922799 0.0001017118964229709 1.290649958840441e-19)
(0.1323923160396819 0.0001407979571147722 1.610112189199322e-19)
(0.1704082702083157 0.0001793478527205734 1.940598080341562e-19)
(0.2086653661329329 0.0002175556739283692 2.282724684177538e-19)
(0.246850958352562 0.0002555713413717419 2.634441855459959e-19)
(0.284373072771107 0.000293522162032937 2.990901487535058e-19)
(0.3205447496275707 0.0003315468094796649 3.126118040107403e-19)
(0.354833336202572 0.000369823112956738 3.261270311057367e-19)
(0.386993683630962 0.0004084345854588911 2.99491408219554e-19)
(0.4172021843034588 0.0004476657221722196 2.741925103255214e-19)
(0.4457113790002948 0.0004877858709967121 2.499353884528722e-19)
(0.4726225184781525 0.0005288497056627645 2.611502293543062e-19)
(0.4980451217301622 0.0005710314461893958 2.724363134984677e-19)
(0.5220997687548956 0.0006144993983206706 2.844620157964776e-19)
(0.544909793167448 0.0006594019321504434 2.992202332796055e-19)
(0.566600180067399 0.0007058885523167527 3.103222300785062e-19)
(0.5872887999282518 0.0007541064646113595 3.388230754687208e-19)
(0.6070795220772263 0.0008041901093294661 3.276509394207222e-19)
(0.6260655447390395 0.0008562737226219499 3.098765586947052e-19)
(0.6443299392617212 0.0009104866820527346 2.939105845290416e-19)
(0.6619460437304651 0.0009669522756382286 2.273529054323704e-19)
(0.6789780208270342 0.001025787300883635 1.619065006795405e-19)
(0.695481477002067 0.001087101193948392 9.727609989742583e-20)
(0.7115041127881009 0.001150994766063205 3.244110557753121e-20)
(0.7270864048039455 0.001217558795636557 -8.468331768033062e-20)
(0.7422622565297069 0.001286872340980155 -1.552938311390234e-19)
(0.757059573975326 0.00135900075171215 -2.288805468380655e-19)
(0.7715007479346783 0.001433993370283139 -2.032614830967608e-19)
(0.7856030464840752 0.001511880919988955 -1.770600679483692e-19)
(0.7993789357841473 0.001592672561485025 -1.506158485630068e-19)
(0.8128363597351052 0.001676352588511071 -1.240753750204511e-19)
(0.825979015774737 0.001762876717492809 9.926005140654475e-21)
(0.8388066452888611 0.001852167917094564 3.907140527187784e-20)
(0.8513152685250392 0.001944111752580511 6.763085360935791e-20)
(0.8634970681227824 0.002038551320499794 9.598712893694901e-20)
(0.8753392119849998 0.002135282305425669 1.239748015387163e-19)
(0.8868204107806313 0.002234051139837952 1.515601565294312e-19)
(0.8979040090890249 0.002334566055175866 1.790769837161068e-19)
(0.9085284717841869 0.002436526869717903 2.070015546364229e-19)
(0.9186030420187236 0.002539595860906807 2.366078874303556e-19)
(0.9280307237250752 0.002643101262182905 2.68824517314572e-19)
(0.9367937394480389 0.002746227686470723 1.623652872246769e-20)
(0.9449966734166584 0.00284895667331994 3.423033474723328e-19)
(0.9527155806931495 0.002950805216891726 7.171023575239833e-19)
(0.9599608567607661 0.003050302310062774 1.153476019320033e-18)
(0.9667334912413975 0.003146615726415045 1.682077130452143e-18)
(0.9730229820446137 0.003238751794339155 1.459286207026191e-18)
(0.9788069691755938 0.003325585031077704 1.206294527459242e-18)
(0.9840527268092346 0.00340595919173051 9.135129287319238e-19)
(0.9887209920545061 0.003478794589743869 5.468973960165208e-19)
(0.9927715133483586 0.003543234069443136 3.959907526705245e-20)
(0.9961682474015661 0.003598798894631804 -7.507962057507636e-19)
(0.9988818412171867 0.003645086936522402 -2.14982643312898e-18)
(1.000895831137306 0.003682167414934069 -3.044536433585202e-18)
(1.002219584763842 0.003707552124569446 -3.087769793579271e-18)
(1.002898257981469 0.003706220072289866 -7.872471446718387e-19)
(1.003015810115021 0.003720488882208812 3.463337360377191e-18)
(1.003011339691467 0.003759973661860213 -4.995657141122842e-18)
(1.002989798910433 0.003748074653910271 -3.386180492183131e-18)
(1.002764028213049 0.003705900191498928 -1.745433648530901e-18)
(1.002340942903816 0.003666080710846781 -6.68620123860304e-19)
(1.001949187658026 0.003648243187276736 -1.764690300255114e-17)
(1.001794979075692 0.003619598637564653 9.409052257715273e-18)
(1.001899397692591 0.003617894867201023 -8.885146539980508e-18)
(1.002085660620445 0.003608240587474856 -3.877399682439627e-18)
(1.002050495653688 0.003557466073313985 -1.543790873907705e-18)
(1.001962321240571 0.003509029498821381 -2.662945219808666e-19)
(1.001936641859852 0.003486176481476095 -5.524732439090106e-21)
(1.001929730618138 0.003450662305208153 9.30571802567467e-20)
(1.001908424275013 0.003404812657892181 1.870732508570015e-18)
(1.001881111055367 0.003358667706988546 2.415607273288086e-17)
(1.001853440619074 0.00331012820993562 8.157560915439204e-18)
(1.001823833789603 0.003256826774094807 3.193405226070801e-18)
(1.001791940624185 0.003199477241133732 2.865418909054446e-18)
(1.001757710885933 0.003137926512194907 2.802572575974169e-18)
(1.001720996447293 0.003071870754291653 3.751308453853598e-18)
(1.001681732272252 0.003001145589023487 6.698519719761553e-17)
(1.001639897853201 0.002925597549883277 1.388722349054187e-17)
(1.001595430873087 0.002845066752447279 9.106067808224788e-19)
(1.001548272479089 0.002759426135172542 5.453414404755189e-17)
(1.001498390251444 0.002668579518881897 2.804006237564378e-17)
(1.001445779010404 0.002572463456175299 4.805225932817037e-17)
(1.001390462402747 0.002471051591669082 3.848400574865163e-17)
(1.001332505258874 0.002364367567027278 5.106898062484802e-17)
(1.001271993226777 0.002252504842747336 9.596086026817208e-17)
(1.001208915874305 0.002135216817755762 1.015909399110863e-16)
(1.001144845355203 0.002014973499184993 1.610650956879889e-16)
(1.001068423652538 0.001887285587044836 1.271798342025861e-16)
(1.000985307055448 0.001755361715319813 1.476993380367543e-16)
(1.000900886210012 0.001619955675983953 1.408480447894011e-16)
(1.00081510699208 0.001480577912646281 1.429089229341047e-16)
(1.000728083416778 0.001337926389496017 1.384700944351589e-16)
(1.000639937641298 0.001193369800259771 9.124905494804708e-17)
(1.000546364493666 0.001039376444329073 1.461668599342357e-16)
(1.000488866813106 0.00089380024165732 7.377107494091997e-17)
(1.000455861985467 0.0007455368795147878 1.023286551402816e-16)
(1.000426788090191 0.0005892977571452248 1.064767340739824e-16)
(1.000402874589734 0.0004281007165934793 1.04636827326452e-16)
(1.00038530958686 0.0002602201476060237 7.250341840699689e-17)
(1.000375603990794 8.290704005740901e-05 9.077179308527389e-17)
(1.000375815896258 -0.0001079348773065859 2.206149329801456e-17)
(1.00038889122279 -0.0003190472479843829 4.110627649712623e-17)
(1.000419376231171 -0.00056121969325284 5.774880601340104e-17)
(1.000474269115278 -0.0008338334413459073 3.706822276413423e-17)
(1.000592603932119 -0.001024868076163776 -1.707149022295509e-17)
(0.9953254986523083 -0.001254983603180284 -3.593104402700361e-20)
(0.0145598086731835 1.76291455458366e-08 -7.096959176278105e-20)
(0.04378200396732375 2.655675990799918e-07 -2.092581097982973e-19)
(0.07331458262126916 7.610645978133753e-07 -3.707539679889528e-19)
(0.1033508228384262 1.511872039372506e-06 -5.314650387308605e-19)
(0.134030243330962 2.518906302061871e-06 -6.977484295441765e-19)
(0.1653621987517785 3.792983308762945e-06 -8.688597819302172e-19)
(0.1971303942432694 5.348450515679953e-06 -1.043682060396877e-18)
(0.2288511193353366 7.197447583074873e-06 -1.21958918185959e-18)
(0.2598723740788647 9.348184939704795e-06 -1.367563148721793e-18)
(0.2895889675235419 1.180829604139855e-05 -1.484926599986526e-18)
(0.3176183205052835 1.459088483957599e-05 -1.600215079429022e-18)
(0.343833150768685 1.772091858975372e-05 -1.66789310051507e-18)
(0.3683298681901833 2.123271029719792e-05 -1.734977475244393e-18)
(0.3913307925494951 2.517754445104048e-05 -1.797173643998625e-18)
(0.4130152140645175 2.960542349725002e-05 -1.855954435648175e-18)
(0.4334980870107089 3.456207610938651e-05 -1.911926056085388e-18)
(0.4528903084811096 4.010365189038503e-05 -1.997178989054614e-18)
(0.4713025160451253 4.62936348521819e-05 -2.078780333290232e-18)
(0.4888417209118357 5.320255029171444e-05 -2.157460820241347e-18)
(0.505608392938828 6.090883004698657e-05 -2.234172762665282e-18)
(0.5216953561163487 6.949941838997366e-05 -2.31028568359152e-18)
(0.5371873595948377 7.906982574595397e-05 -2.387387308527904e-18)
(0.5521611763970784 8.972284945633624e-05 -2.41677078342135e-18)
(0.5666860552025453 0.0001015694777698715 -2.449391908817592e-18)
(0.5808243490517603 0.0001147287765814836 -2.48450784038858e-18)
(0.5946321961171407 0.0001293302191770483 -2.475578692464763e-18)
(0.60816019037118 0.0001455149105718181 -2.514994649451365e-18)
(0.6214540084402368 0.0001634361062042519 -2.556840692672667e-18)
(0.634554974060876 0.0001832597756692701 -2.60155301108148e-18)
(0.6475005518442427 0.0002051651382771177 -2.605392672289336e-18)
(0.6603247671570667 0.0002293450766214013 -2.613509312049996e-18)
(0.6730585510335027 0.0002560063701454128 -2.626806518313501e-18)
(0.6857300086779229 0.0002853696928365243 -2.646251870330846e-18)
(0.6983646077344924 0.0003176693104492766 -2.582407901798318e-18)
(0.7109852790993643 0.000353152407908178 -2.523737158205891e-18)
(0.7236124213723097 0.0003920779659833213 -2.467505438690442e-18)
(0.7362638069480254 0.0004347150544562692 -2.41049616603493e-18)
(0.7489544168656911 0.00048134028233459 -2.446972561951213e-18)
(0.7616963041102591 0.0005322338954440231 -2.489049824159674e-18)
(0.7744987214566724 0.0005876730729589887 -2.48462567906412e-18)
(0.7873689368890214 0.0006479162056706725 -2.445246620068539e-18)
(0.8003142728149419 0.0007131669737065605 -2.358389297369636e-18)
(0.8133455373091204 0.0007835457577697161 -2.054737079259202e-18)
(0.826480236469919 0.0008590950440626068 -1.748631829733051e-18)
(0.8397401161236381 0.0009398235199088263 -1.531251456245342e-18)
(0.8531321894455471 0.001025618632779419 -1.43565269529041e-18)
(0.8666163985782315 0.00111639639492804 -1.357650924525368e-18)
(0.8801287755522825 0.001211868778591021 -1.840117488344128e-18)
(0.8935914748038225 0.001311628675389759 -2.273729176952627e-18)
(0.9069068034548778 0.001415126840131129 -2.968201262772837e-18)
(0.9199283315503013 0.001521580608869219 -3.148208909597561e-18)
(0.9324367423451306 0.0016300320097308 -3.582778992740391e-18)
(0.9441455929908571 0.001739103296550096 -4.149544520092774e-18)
(0.9548038437874655 0.001845687595751158 -4.926850932856745e-18)
(0.9645326438282421 0.001948536216103073 -6.003111657631973e-18)
(0.9735437541842061 0.002046892740711318 -5.040449133628773e-18)
(0.9817590437225903 0.002138566064356669 -3.651327353020678e-18)
(0.9890073195885716 0.002226357493555767 1.812572531152319e-18)
(0.9951087918697169 0.002291493919632398 4.895484954296838e-18)
(0.9998366008610534 0.002331340204272698 2.660592139673364e-18)
(1.003161579902542 0.002374493736109613 1.03698449227885e-18)
(1.005211381414129 0.002414431094130994 -3.790646058811589e-20)
(1.006133495032211 0.002459174418663204 -1.622447977866275e-18)
(1.006368106537362 0.002412917366910061 -9.698981890257609e-18)
(1.006184074002217 0.002434576704253554 1.355265978955288e-18)
(1.005565296860899 0.002425684439363734 -4.613164922877011e-17)
(1.005250797322981 0.00240257238108953 -1.106710809483147e-17)
(1.005481462579102 0.002394371545402962 -1.374398371538885e-18)
(1.005549818968259 0.002393938209765224 -8.063428187380362e-20)
(1.005456682963157 0.002388858583509763 -5.498288046904788e-19)
(1.005364000923511 0.002373898008781054 -1.9302981569573e-18)
(1.005315691467771 0.002363821755439964 -3.170030274711084e-17)
(1.005255810288921 0.002353746495117103 -4.028754507868255e-18)
(1.005187321087329 0.002342247353583574 4.264051433949981e-18)
(1.005114762197466 0.002329304310804878 -2.773896418684168e-17)
(1.005037488435899 0.002315451335104342 -9.087158414473625e-18)
(1.004955024019964 0.002300303839554611 -2.415537451634554e-17)
(1.004867317540366 0.002283580654853671 -4.577240171500027e-17)
(1.004774187667409 0.002265078946064217 -2.122354489992204e-18)
(1.004675461345993 0.00224452002085195 -2.32315297772689e-17)
(1.00457110997846 0.002221579190090605 -3.154532393636814e-17)
(1.004461164644802 0.002195897969745122 4.765322976227253e-17)
(1.004345706515398 0.002167070241310074 6.270962242556012e-17)
(1.004224883281823 0.002134641105139209 9.685280593185487e-17)
(1.00409891674508 0.002098101433760552 1.980655727999085e-16)
(1.003968100230175 0.002056884175886353 3.256791532471481e-16)
(1.003832837821761 0.002010518382735635 4.687123834530233e-16)
(1.003693585814311 0.001957635996344275 6.604208842749126e-16)
(1.003550629570818 0.001898674696598957 8.901158715635086e-16)
(1.003420771102096 0.001831959148824726 1.006570366342444e-15)
(1.003295299987161 0.001757332464073935 1.028673289862537e-15)
(1.003166781227767 0.001673079202312397 1.11533427243543e-15)
(1.003035813275513 0.001578176173465042 1.10018671941635e-15)
(1.002903140434989 0.001471512053625941 1.060497224854362e-15)
(1.002769666086925 0.001354319599762194 9.082959221465526e-16)
(1.002635154967869 0.001223155224742081 7.791177054878116e-16)
(1.002511986818387 0.001075569388023412 5.631999304285358e-16)
(1.002402548640848 0.0009108143489177131 5.147975594908221e-16)
(1.002307076624863 0.000732777093016197 4.175634024126159e-16)
(1.002226982742476 0.0005406285568260805 3.512078097042143e-16)
(1.002166361561274 0.0003320685233181293 3.04728117894357e-16)
(1.002130457689789 0.0001064174280735192 3.677558013817174e-16)
(1.002125985994679 -0.0001367546525725338 3.59206857926315e-16)
(1.002161938099039 -0.0003967453530278614 3.579728940873905e-16)
(1.002251609845883 -0.0006802363888440657 2.822193274092487e-16)
(1.002415570523666 -0.001011849255522975 1.554553100625845e-16)
(1.002583702353471 -0.001140555976963142 2.378867826355013e-17)
(0.9894536930005067 -0.002087647564034865 3.989345319498911e-20)
(0.0134990952308164 5.513488747526213e-09 7.900666064087479e-21)
(0.04059383334151152 9.134249962561163e-08 2.378472325597942e-20)
(0.06797836889544048 2.689042124284475e-07 3.978095658892061e-20)
(0.09583511806595325 5.453509289272909e-07 5.586185677694901e-20)
(0.1243051275509812 9.260584510996628e-07 7.162566285572006e-20)
(0.1534266914010695 1.419991405107021e-06 8.635083658354025e-20)
(0.1830523406949099 2.037002557941133e-06 1.290450083513477e-19)
(0.2127959872968505 2.784763346394805e-06 1.709722632288644e-19)
(0.2420878847970436 3.666959611059535e-06 2.314239970227605e-19)
(0.2703461698387682 4.684227458353373e-06 2.822862470720905e-19)
(0.2971521194061609 5.837381866366535e-06 3.223867361142505e-19)
(0.3223155001676831 7.13032099017387e-06 3.615629882729219e-19)
(0.3458341797447542 8.569884890841214e-06 3.999742714428839e-19)
(0.3678848149906623 1.017114310497302e-05 4.380598754389095e-19)
(0.3886603139638062 1.195349713092648e-05 4.762590354859343e-19)
(0.4082696041148177 1.393381154647238e-05 4.760583299667633e-19)
(0.426807937613614 1.613248075974151e-05 4.78788976334143e-19)
(0.444370798938429 1.857366026834236e-05 4.843904863016907e-19)
(0.4610521552643804 2.128526223327342e-05 4.609712984413809e-19)
(0.4769419630698056 2.42995512670809e-05 4.339082355960191e-19)
(0.4921262935944754 2.765314432945525e-05 4.422612336135223e-19)
(0.5066920083043163 3.138491495199727e-05 4.211878592976601e-19)
(0.5207394765627557 3.553985785073554e-05 4.094354099061713e-19)
(0.5343576315611959 4.016799950685648e-05 3.992500239263372e-19)
(0.5476047081404782 4.531822232604695e-05 3.918221295965224e-19)
(0.5605265322163605 5.104811275311941e-05 3.878645971235705e-19)
(0.5731637535938328 5.742368889580211e-05 3.878822404145577e-19)
(0.5855526691441545 6.451914033910429e-05 3.924219969345586e-19)
(0.5977259196412316 7.241821824025242e-05 4.019546173356186e-19)
(0.6097130790310634 8.121566068971656e-05 4.167910387327849e-19)
(0.6215411519861295 9.101864575577439e-05 3.89297489719532e-19)
(0.6332349943709886 0.0001019483880430023 3.673323217901567e-19)
(0.6448176696140129 0.0001141419111192773 3.50995792354128e-19)
(0.6563107525189522 0.0001277539936071822 4.349158746958805e-19)
(0.6677345911208417 0.000142959265841548 5.272723593507309e-19)
(0.679108536999164 0.0001599543874186786 6.301946589931467e-19)
(0.6904511553185316 0.0001789603180489861 6.515937651894598e-19)
(0.7017804281542593 0.0002002253470998008 6.852241977294356e-19)
(0.7131139689258974 0.0002240299141391829 7.3330643265134e-19)
(0.7244692727460113 0.0002506848561543628 7.700859673930702e-19)
(0.7358683361972906 0.0002805105477017888 7.049272761522149e-19)
(0.747356678221137 0.0003138928588122206 8.301764397217845e-19)
(0.7589888869754515 0.0003512766619088142 9.815788679435658e-19)
(0.7708023605071103 0.0003931180795494169 7.306715099648637e-19)
(0.7828237720212513 0.0004399430176023865 4.762959715152049e-19)
(0.7950734299042801 0.0004923444246588577 3.530840692930389e-19)
(0.8075684334765549 0.0005509387465458509 2.231207612372156e-19)
(0.8203258252356747 0.0006163345737751832 -4.43735926202501e-19)
(0.8333656545843305 0.0006890738087247841 -1.060768156954697e-18)
(0.8467111332802062 0.0007696174840559995 -1.696930170830559e-18)
(0.860378510304896 0.0008583802381411066 -2.339920557892114e-18)
(0.8743416270747253 0.0009555038457807199 -2.982691684079331e-18)
(0.8885147193432772 0.001060534549744162 -3.622573899088082e-18)
(0.9027855657084902 0.001172530006018106 -4.257504747741154e-18)
(0.9170204782452497 0.001290336819451208 -4.873569328672119e-18)
(0.9310032600518995 0.001412406465748906 -5.432258096466123e-18)
(0.9443868241924771 0.00153676424941965 -5.99594102863716e-18)
(0.956764395812734 0.001660146244527037 -6.642311169936229e-18)
(0.967952878384673 0.001778258286303002 -6.886025428392283e-18)
(0.9780884554497601 0.001889015144685444 -7.961817607090065e-18)
(0.9871568846131625 0.001990168828749589 -6.209945839757187e-18)
(0.9948514088348621 0.002074911900143432 -6.240958492299273e-18)
(1.000841349553186 0.002136641951925037 -8.02401351293341e-18)
(1.004806721941123 0.002205433485765902 -1.339115994182803e-17)
(1.006841995375131 0.002225632959732397 -2.65605857232338e-17)
(1.007352233148727 0.00222271335692395 -5.52863330527803e-17)
(1.007296105847875 0.002185541329034917 -3.538505048760126e-17)
(1.006847135845652 0.002215444984006753 -2.922803115248734e-17)
(1.006866866634007 0.002195893187417363 3.58384296524393e-18)
(1.00692454653261 0.002172099000994372 3.681153088789374e-18)
(1.006882009020075 0.002158562079551326 2.625960775891755e-18)
(1.006836462505718 0.002144589130962029 -1.536381033382097e-17)
(1.00679862155218 0.002127245099336125 3.127982473960338e-17)
(1.006756407270241 0.00210777298496713 -2.822488154587704e-17)
(1.006710483342407 0.002086988783305641 -4.135141847389438e-18)
(1.006661433918754 0.002064540032409765 -1.228893916116977e-17)
(1.006608649284607 0.002040069420250647 -2.425362986850825e-17)
(1.006551873190326 0.002013491553287744 -3.749491857554201e-17)
(1.006490951959853 0.001984670018084945 -1.812464036990596e-17)
(1.006425741827359 0.001953409381774368 8.603548087814156e-18)
(1.006356028818192 0.001919522178845625 -3.377301947540891e-17)
(1.006281594960647 0.001882806895577255 3.409149985776871e-17)
(1.006202241002527 0.001843037133912044 -1.485943463619164e-18)
(1.006117788214428 0.001799967244491381 2.987260313081028e-17)
(1.006028083671122 0.001753331333223975 1.101234257058373e-16)
(1.005933007562301 0.001702766857492216 1.779029567798133e-16)
(1.005832488309053 0.001648215675841788 2.786390206829697e-16)
(1.005726466909028 0.00158879999239273 4.114308198225193e-16)
(1.005615046915468 0.001523961629160868 5.001860552854756e-16)
(1.005498397674243 0.001454711318986492 5.952674491448911e-16)
(1.005376318712333 0.00138006412674398 5.095927608029986e-16)
(1.00524907941615 0.001298929008420474 5.827993421518718e-16)
(1.005117313957496 0.001211426284324312 4.237636023219118e-16)
(1.004981936416335 0.001116020674143154 2.588916549131243e-16)
(1.004844191364951 0.001013269011455302 7.1684305826482e-17)
(1.004704924222957 0.0009026106262797014 -5.866444587224808e-17)
(1.004567221742601 0.0007803133984917845 -2.06786308141035e-16)
(1.004436930784926 0.0006466432012451132 -1.899387438293141e-16)
(1.004312750507189 0.0005033756421454275 -9.020900262773983e-17)
(1.00420533889965 0.0003467962364072618 6.885081097573779e-17)
(1.004120540837082 0.0001752379961453069 2.744408953901391e-16)
(1.004065381066736 -1.241366641083425e-05 5.944011979163992e-16)
(1.004048512878901 -0.0002184234297069193 7.72999046719918e-16)
(1.004080148102322 -0.000442149552926121 7.573615272973598e-16)
(1.004173152457055 -0.0006834932529759588 6.564760430408457e-16)
(1.004352059654049 -0.001035740459256067 3.75171137225643e-16)
(1.004376697600563 -0.0008131014918786245 8.194606893902048e-17)
(0.9837599507239562 -0.002676635240304831 -2.716624615404968e-20)
(0.01288150357902998 3.734244471913556e-09 4.591823701406796e-20)
(0.03873664068550658 6.205257982879299e-08 1.376200469455255e-19)
(0.064868577055906 1.82755202026145e-07 2.285569042109639e-19)
(0.09145303146765379 3.707358535064077e-07 3.499754325217782e-19)
(0.1186308843580655 6.297198340261657e-07 4.634211977396684e-19)
(0.1464551680186244 9.659490480371705e-07 5.711391020628285e-19)
(0.1748162219743922 1.38643319650124e-06 6.701793121154979e-19)
(0.2033857282881201 1.896883958511903e-06 8.015159360608016e-19)
(0.2316490663321336 2.500270274322722e-06 9.316534880209445e-19)
(0.2590488960615701 3.197065990016084e-06 1.028460264017581e-18)
(0.2851535890778461 3.987250682777277e-06 1.09336775624085e-18)
(0.3097388012621975 4.872357992210404e-06 1.156391047257439e-18)
(0.3327658905182063 5.85500456740318e-06 1.190163029248539e-18)
(0.3543638500599356 6.943642807483824e-06 1.222655610543654e-18)
(0.3747108550661578 8.148884874348452e-06 1.253844869053461e-18)
(0.3939242529041778 9.482012780027281e-06 1.283630130828398e-18)
(0.4120916146832669 1.09543458506752e-05 1.311858726877484e-18)
(0.4292995713869949 1.257968244933962e-05 1.33838174291594e-18)
(0.4456344334747046 1.437400723111001e-05 1.363167771718748e-18)
(0.4611800270931687 1.63556782456717e-05 1.422216122538504e-18)
(0.4760181606781922 1.854516649382654e-05 1.444332833549012e-18)
(0.4902348842321702 2.096362443463721e-05 1.465783282252708e-18)
(0.503935933048935 2.363826890551819e-05 1.486999700436862e-18)
(0.5172071225853827 2.659896905989592e-05 1.508280953544881e-18)
(0.5300989028747045 2.987455666187744e-05 1.52975894347311e-18)
(0.5426556411836277 3.350122771983689e-05 1.55149863223577e-18)
(0.5549165591254062 3.75190370893475e-05 1.573556597096595e-18)
(0.5669165404471794 4.197251772914852e-05 1.59599617156279e-18)
(0.5786868212275637 4.691150917203175e-05 1.618903988811227e-18)
(0.5902555785922188 5.239188963506816e-05 1.64238976197125e-18)
(0.6016484336946091 5.84763432183814e-05 1.666566069187212e-18)
(0.6128888831764108 6.523523865401027e-05 1.691667922078573e-18)
(0.6239986716461698 7.274763152210603e-05 1.717885639597871e-18)
(0.6349981159658833 8.110239748964145e-05 1.745532203853852e-18)
(0.6459063905681728 9.039951020779067e-05 1.774481536129307e-18)
(0.6567417816641189 0.0001007514850222673 1.804562124123854e-18)
(0.6675219170634706 0.0001122850232278833 1.835378167683387e-18)
(0.6782639773529849 0.0001251428644801619 1.866750332071486e-18)
(0.6889848932386703 0.0001394856489860017 1.898253333740486e-18)
(0.6997015327688298 0.0001554934714497066 1.929292513473841e-18)
(0.7104308805130019 0.0001733697638026715 1.959623007193802e-18)
(0.7211902003292425 0.0001933547321161775 1.990764392062718e-18)
(0.7319971393036802 0.0002157328833128995 2.024078003464719e-18)
(0.74286979780659 0.0002408504259799754 2.060341931763613e-18)
(0.753826844380717 0.000269119219202933 2.105107175654094e-18)
(0.7648877010229884 0.0003009653548555979 2.382859109572677e-18)
(0.7761035531277742 0.0003369186353234745 2.507771123972449e-18)
(0.7875459928552204 0.0003776298573291673 2.693922198613779e-18)
(0.7992648404844348 0.0004237790472720426 2.952811202828258e-18)
(0.8112941102739379 0.0004761388721130868 2.974524180767671e-18)
(0.8236572926098282 0.0005355655788400758 2.84741928436203e-18)
(0.8363715537456788 0.0006029413043018704 2.636851378743834e-18)
(0.8494519348282823 0.0006791112403152478 1.683566501911528e-18)
(0.8629160071589896 0.0007648177121902669 7.926494999290051e-19)
(0.8767857847231371 0.0008606384587543887 -1.297981452401648e-20)
(0.8910754631997764 0.0009669038605362199 -6.465469216805656e-19)
(0.9057370744659199 0.001083266965181748 -1.98132917164235e-18)
(0.9206078634500581 0.001208305152402392 -3.119566947850163e-18)
(0.9353765608024137 0.001339745698916837 -3.936053728523098e-18)
(0.9495489587616941 0.001473890737235901 -4.164505467374126e-18)
(0.9626232741806483 0.001605472317871662 -3.83067959918171e-18)
(0.9743810917352116 0.001729891549244113 -6.716213261900876e-18)
(0.9848877879443546 0.00184421126892189 -1.070100848729389e-17)
(0.9939317953408712 0.001947403174444324 -1.693807035365693e-17)
(1.000983625701055 0.002025786055557958 -2.499611950154829e-17)
(1.00560899194307 0.002077512296325914 -3.975249992000284e-17)
(1.007717696143708 0.002108424300217188 -4.587538548679531e-17)
(1.008243538288555 0.002090802579221221 -2.532072515903055e-17)
(1.007976756949582 0.002100578554316408 9.239680472640391e-18)
(1.007901528926804 0.002077046276533385 -1.253430798109696e-17)
(1.007875543032995 0.002066072538538067 1.156925289062038e-17)
(1.007838137944666 0.002052135192134296 -3.251372721970108e-18)
(1.007798404237878 0.002036269796520115 5.434381386866024e-17)
(1.007754951325665 0.002019022653804891 -7.14864826435377e-18)
(1.007708289507252 0.002000453528761217 5.627553496465038e-19)
(1.007658554192954 0.001980116194491983 -1.281695604081716e-17)
(1.007605392075329 0.00195779927745539 7.087099100698992e-18)
(1.007548629632971 0.001933431311131098 -4.854331759100383e-17)
(1.007488029006036 0.00190682357273885 -7.174487344313836e-18)
(1.00742335719262 0.001877754102715246 1.076765768813374e-18)
(1.007354485688816 0.001846006399512719 -1.491051944594798e-17)
(1.007281295894297 0.00181134289635429 1.197251776881717e-17)
(1.007203681235729 0.001773504065237888 -8.263678594808175e-17)
(1.007121563544016 0.001732211826874049 -1.087152918699505e-16)
(1.007034901286878 0.001687190517695306 -8.279845231788142e-17)
(1.006943693274664 0.00163800772973805 -1.416907530978441e-16)
(1.006848011551242 0.001584589314529195 -1.705213368022417e-16)
(1.006747912441958 0.001526372624008343 -1.655324156639749e-16)
(1.006643577389757 0.001462567622556777 -2.299316969112357e-16)
(1.006535399480895 0.001393648926374078 -2.610572504532995e-16)
(1.006423348369896 0.001318660821747333 -4.987122515202764e-16)
(1.006307893731758 0.001236890194754441 -5.672600411753358e-16)
(1.006189657070923 0.001148577980955292 -8.120255155543719e-16)
(1.00606942310267 0.001052202615427004 -1.033845499815438e-15)
(1.005948329109693 0.0009477611181980127 -1.178714696397381e-15)
(1.005827107618405 0.0008353959247113695 -1.284424033422311e-15)
(1.005708178879144 0.0007123177813990235 -1.285522282145932e-15)
(1.005597287186559 0.0005787819473731081 -1.097251262165397e-15)
(1.005503208991511 0.0004345934555260769 -8.325282657044491e-16)
(1.005423021768821 0.0002770103807556541 -3.817625780541728e-16)
(1.005361105785344 0.0001052454786569547 1.135683992210974e-16)
(1.005322965086036 -8.169619434813207e-05 6.658807205913246e-16)
(1.00531554559368 -0.0002867433830081331 9.929023626731325e-16)
(1.005347776152284 -0.0005096229380572999 1.024932494636638e-15)
(1.005432608381226 -0.0007328128882266062 8.629014504354351e-16)
(1.005593496436622 -0.001183544801826605 4.973719389417937e-16)
(1.005345247718432 -0.0005202986116052964 1.005049219223772e-16)
(0.9783815823663041 -0.003226753404825225 1.61538464303643e-18)
(0.01247826859875584 2.806703895314769e-09 3.473903767119458e-20)
(0.03752388831932233 4.663601954216104e-08 1.044569542398776e-19)
(0.06283763049790381 1.373534620859837e-07 1.749309268234591e-19)
(0.08859069630201784 2.786420000501807e-07 2.464342818478001e-19)
(0.1149233506494683 4.733181848383576e-07 3.190720218393206e-19)
(0.1418970540459969 7.261306178310189e-07 3.919307877279301e-19)
(0.1694250398885244 1.042505829430765e-06 4.624529468555069e-19)
(0.1972155580354613 1.427045374115412e-06 5.1110389076382e-19)
(0.2247912734894116 1.882379244655614e-06 5.553253325681833e-19)
(0.2516145257548153 2.409160100954182e-06 6.314706468177492e-19)
(0.2772488859288106 3.007407873160943e-06 7.030044327417886e-19)
(0.3014494748586633 3.678093985948374e-06 7.699557086526623e-19)
(0.3241538537608584 4.423170744666191e-06 8.328668402431099e-19)
(0.345459525272408 5.248319174797252e-06 8.93790609765221e-19)
(0.3655347016211372 6.161206003264294e-06 9.473811719313242e-19)
(0.3845018031011443 7.17037996112448e-06 1.020883890196221e-18)
(0.4024431308705018 8.283688994001399e-06 1.085935297682732e-18)
(0.4194395208955043 9.510997736722619e-06 1.139832536041544e-18)
(0.4355723977407009 1.086372591485501e-05 1.174478669505075e-18)
(0.4509216207028579 1.235490476097841e-05 1.218195148443131e-18)
(0.4655656688088283 1.399898642973905e-05 1.238285295592134e-18)