/*--------------------------------*- C++ -*----------------------------------*\
| =========                 |                                                 |
| \\      /  F ield         | OpenFOAM: The Open Source CFD Toolbox           |
|  \\    /   O peration     | Version:  v1812                                 |
|   \\  /    A nd           | Web:      www.OpenFOAM.com                      |
|    \\/     M anipulation  |                                                 |
\*---------------------------------------------------------------------------*/
FoamFile
{
    version     2.0;
    format      ascii;
    class       volScalarField;
    location    "1000";
    object      k;
}
// * * * * * * * * * * * * * * * * * * * * * * * * * * * * * * * * * * * * * //

dimensions      [0 2 -2 0 0 0 0];


internalField   nonuniform List<scalar> 
11031
(
0.003763614062607861
0.003951475947532503
0.004147687589035205
0.004352618742668203
0.004566645771098688
0.00479015399606725
0.005023542739129807
0.005267234836984787
0.005521693500615761
0.00578745115432951
0.006065157818431618
0.006355661547925613
0.006660141965149241
0.006980333029664049
0.007318898806107469
0.007680078569879754
0.008070822804356632
0.008502865349643935
0.008996686906195551
0.00958956897545013
0.01035236848632496
0.01137977344135913
0.01282696239308729
0.01498494427379417
0.01823808281223109
0.02276673901032634
0.02793296349429471
0.03125387723235355
0.02890680674432679
0.02116654198958471
0.01317142200831075
0.007803672794717749
0.004772002326828334
0.003120894487652977
0.002167026272400788
0.001529815149420737
0.001047843922573392
0.0006753224453649845
0.0004014229174337523
0.0002161990057644884
0.000103863602805231
4.400279082488217e-05
1.63111591595048e-05
5.261527823321983e-06
1.475690014188903e-06
3.67506806791454e-07
9.819582778619443e-08
8.884311652910501e-08
3.947277749895676e-07
2.461662981440123e-06
1.779876847555896e-05
0.0001621331320946717
0.001349192490399167
0.007357524577895563
0.02624463714729996
0.07132406226904742
0.1762209424660678
0.4931364091049347
0.003498925740276492
0.003675339296024065
0.003859571079938828
0.004051989215747294
0.00425296828643525
0.004462889236689235
0.004682140113754485
0.004911118320953928
0.005150235462574929
0.005399926505930582
0.00566066602062857
0.005932995946730616
0.006217572135397544
0.00651524159643953
0.006827170442263425
0.007155056689551651
0.007501487817594138
0.007870551559243698
0.008268904613325677
0.008707706280887299
0.009206280918840621
0.009799488102076991
0.01055361837621331
0.01156089485978095
0.01296623113631375
0.01503279101777754
0.01813840337435886
0.02250882339161331
0.02766411171680969
0.03139390933640377
0.02984114348257609
0.02240910190373812
0.01408143785822736
0.008306951149106902
0.005022930918893886
0.003243301062779106
0.002230680925229171
0.001568150488244435
0.00107375661601649
0.0006932747060464618
0.0004133887642128949
0.0002235549242706956
0.0001078986566724585
4.5939172884877e-05
1.711615528185853e-05
5.549647447860719e-06
1.563982181734819e-06
3.905299604188438e-07
1.031604278749056e-07
8.904128820030279e-08
3.906723789974111e-07
2.438029025797007e-06
1.765807995645503e-05
0.0001613273287002067
0.001346080311830322
0.007349694456449034
0.02623100563209218
0.07131745271453867
0.1762655389777288
0.4932168263523218
0.003248863859415991
0.003414583387179543
0.003587580734798652
0.003768218658556051
0.003956868092825412
0.004153907501678289
0.00435972238566886
0.004574705193753255
0.004799256045905405
0.005033784921288805
0.005278716354075156
0.005534498302748656
0.005801617855050686
0.006080628049403558
0.006372192761121392
0.006677161064862849
0.006996690106383563
0.00733244885568175
0.007686959164738506
0.008064175557779846
0.00847049339605511
0.008916558250622653
0.009420657421475539
0.01001545817968385
0.01076240916456683
0.01175295789776377
0.0131230951605588
0.01510932835341072
0.01807953005756791
0.02229653814950826
0.02741339669447813
0.03146731112524378
0.03067381142136749
0.02363592114863173
0.01502421092123898
0.00883633975335707
0.005286878737687678
0.003371236873907296
0.002296152836752716
0.001606799218862241
0.001099544145114961
0.0007110480730705979
0.0004252332964547451
0.000230857823567509
0.0001119227644897477
4.788008961282749e-05
1.792728472935316e-05
5.841530453107988e-06
1.65392082811323e-06
4.141144881928853e-07
1.082835976206943e-07
8.930445009697124e-08
3.867904024026716e-07
2.415302047722108e-06
1.752276468036042e-05
0.00016055940693122
0.001343202271644116
0.007342769155992492
0.02621952401186572
0.07131435782049449
0.1763147065275881
0.4933019474197659
8.700712501749887e-10
2.307059861025862e-08
1.489551332246327e-07
5.195766495390833e-07
1.32403041662432e-06
2.807272933809832e-06
5.286809166396326e-06
9.17519501670408e-06
1.500713955812965e-05
2.346880618401444e-05
3.542331757511009e-05
5.191982323866346e-05
7.416391754986121e-05
0.000103418709491299
0.0001408105401174907
0.0001870501334028868
0.0002421538775957844
0.0003053150005554605
0.0003750421207769475
0.0004495310322895894
0.0005270887458112734
0.0006064255244845722
0.000686749241475247
0.000767709827533604
0.0008492777171817495
0.000931619064143398
0.001014999087803151
0.001099720541263596
0.001186090506199464
0.001274405747548968
0.001364948647258787
0.001457988371786015
0.001553784143673584
0.001652588998289184
0.001754653296012977
0.001860227733417213
0.001969565818604502
0.002082925865463477
0.00220057258576081
0.002322778352393511
0.002449824194562159
0.002582000567214685
0.002719607924485491
0.002862957114862193
0.003012369606253637
0.003168177545599806
0.003330723655030852
0.003500360967035348
0.003677452408473158
0.003862370258687877
0.004055495527013972
0.004257217336321213
0.00446793245832405
0.004688045244883494
0.004917968349510628
0.005158124874581548
0.005408952955100859
0.005670914389196027
0.005944509886812481
0.006230305060064241
0.006528973833136682
0.006841370200876985
0.007168646498756122
0.007512448928071823
0.007875243613314497
0.008260868277984638
0.008675485688344756
0.009129281069053391
0.009639609103293183
0.01023715214214625
0.01097880212781672
0.0119557142519521
0.0132954297722456
0.01521131417357228
0.01805841213027439
0.02212841851316828
0.02718488020270759
0.03149062038500562
0.03140621365619505
0.02483659629202426
0.0159958396687521
0.009391464422556988
0.005563791071635718
0.003504666330561997
0.00236343349893464
0.001645746903162178
0.001125186920851661
0.0007286224397824632
0.0004369387455163029
0.0002380943059367486
0.0001159274472903476
4.982102836975706e-05
1.874252530771754e-05
6.136416146114151e-06
1.745266927845301e-06
4.381979766841564e-07
1.135517133230065e-07
8.962932470418743e-08
3.830771886036871e-07
2.393461428457547e-06
1.739272225007539e-05
0.0001598289542747237
0.001340557520466056
0.007336747927715765
0.02621019756675434
0.07131479423815726
0.1763684820256053
0.4933918665050704
9.170915516036615e-10
2.439162000813791e-08
1.577067630826504e-07
5.504791093103307e-07
1.403317296102456e-06
2.976081864710657e-06
5.605522325767837e-06
9.728978049924033e-06
1.591270960361866e-05
2.488203002659918e-05
3.754636846103481e-05
5.500509518709457e-05
7.850980061577389e-05
0.0001093507512021767
0.0001486432715412786
0.0001970334311709905
0.0002544220126217841
0.0003198649787829066
0.0003917564211508607
0.00046823314231369
0.0005476026129609884
0.0006286159762164072
0.0007105376091897708
0.0007930706352289485
0.000876225724769233
0.0009601954592503583
0.001045261187382273
0.001131735137069301
0.001219929940894307
0.001310145858558177
0.001402667880803316
0.001497767570475361
0.001595706692169199
0.001696741143522437
0.00180112454077675
0.001909111252825786
0.002020958877202452
0.002136930225910336
0.002257294908463674
0.002382330588765545
0.002512323976749596
0.002647571600291373
0.00278838038382324
0.002935068053408201
0.003087963376343444
0.003247406238859029
0.00341374756420687
0.003587349074266714
0.003768582904409243
0.003957831095610917
0.004155485009109455
0.004361944747855875
0.004577618728410743
0.004802923640736485
0.005038285182055885
0.005284140181162332
0.005540941097791552
0.005809164456620783
0.006089325704487775
0.006382004471722421
0.006687886664698154
0.007007833878668893
0.007342997493517905
0.007695006712208352
0.008066280964553208
0.008460556044976732
0.008883788080025965
0.009345750408326565
0.0098629628251741
0.01046433726058521
0.01120272157979155
0.01216847023581169
0.0134814360087216
0.01533598459008432
0.01807112145172573
0.022000279842455
0.02698125034420298
0.03147921210750164
0.03204297118243504
0.0260015856479167
0.01699196793685761
0.009971842502667711
0.005853609132774528
0.003643541321383134
0.002432509008181131
0.00168498041960315
0.001150668865423081
0.0007459813099891759
0.0004484901138300286
0.0002452527068056346
0.0001199051243555626
5.175786172907778e-05
1.955998927775712e-05
6.43358070379253e-06
1.837788747669358e-06
4.627187510587179e-07
1.189510259117259e-07
9.00124664766917e-08
3.795274833786455e-07
2.37248307074565e-06
1.726782933140189e-05
0.0001591353879288943
0.001338144315476649
0.007331627171935607
0.02620302626491178
0.07131877586135998
0.1764269126309362
0.4934866035863819
9.662053437380205e-10
2.577178485832793e-08
1.668520451156528e-07
5.827750156289013e-07
1.486183416923905e-06
3.152511671098714e-06
5.938605769881878e-06
1.030765161529233e-05
1.685873308538571e-05
2.635770819350508e-05
3.976157529907527e-05
5.822051630198074e-05
8.303115753553259e-05
0.0001155074140861261
0.0001567471955263961
0.0002073241171718453
0.0002670178011078684
0.000334747367690272
0.0004087992506089664
0.0004872609643099759
0.0005684481626943922
0.0006511557617153883
0.0007347027698811818
0.0008188414031764906
0.0009036192915093979
0.0009892537452600573
0.001076041341624497
0.001164303235538715
0.00125435730944651
0.001346507207566305
0.001441040556446971
0.001538231434440679
0.001638344325349292
0.001741638197605235
0.001848370146848677
0.001958798440976349
0.002073184988281048
0.002191797310627948
0.002314910114558547
0.002442806540246637
0.002575779150249927
0.002714130703206231
0.002858174740625826
0.003008236003922955
0.003164650691831784
0.003327766560774781
0.003497942870699677
0.003675550179227638
0.00386096999465143
0.004054594310130473
0.004256825064896324
0.00446807361359835
0.004688760345784087
0.004919314687353046
0.005160175860992703
0.005411795007204414
0.005674639624113046
0.005949201842396023
0.006236012946860266
0.006535667995354605
0.006848866733656387
0.007176480889418042
0.007519664474983987
0.0078800350006922
0.008259973423507944
0.008663127038968604
0.009095268654872398
0.009565803325201528
0.01009050553605321
0.01069672642823142
0.01143387231775915
0.01239026892378211
0.01367932480778553
0.01548076021757589
0.01811401778009852
0.02190744613952661
0.02680210174447375
0.03144702834360725
0.03259130067845727
0.02712272497857187
0.01800808388770247
0.01057702582748909
0.006156365483119579
0.003787851990064641
0.0025033837357367
0.001724500163275677
0.001175984841139639
0.0007631168160662918
0.0004598785769217024
0.0002523252670033123
0.000123850368676523
5.368748444218638e-05
2.037820218605025e-05
6.732441664956526e-06
1.9312952164158e-06
4.876249093328526e-07
1.244696984222478e-07
9.045049250339069e-08
3.761345655236646e-07
2.352334106855652e-06
1.714790528412848e-05
0.0001584776534144994
0.00133595774947922
0.007327391338550865
0.02619798298006073
0.07132627439050607
0.1764899877824871
0.493586147590941
1.017813674996799e-09
2.722173875679512e-08
1.764597452508539e-07
6.167043041341191e-07
1.573240264697016e-06
3.337858489123236e-06
6.288497903092313e-06
1.091543724415087e-05
1.785208165350771e-05
2.790649372332048e-05
4.208478270741371e-05
6.158877179870044e-05
8.77592755500667e-05
0.0001219302426964165
0.0001651754095575773
0.00021798756615358
0.0002800188217844419
0.0003500506641347793
0.0004262669579019638
0.0005067136473442392
0.0005897210527886121
0.0006741312508177278
0.0007593184358032133
0.0008450827961300785
0.0009315072134719366
0.001018832101954852
0.001107368014772715
0.001197444206844129
0.001289383350096068
0.001383492288016787
0.001480061285880655
0.001579367058804355
0.00168167699879784
0.001787253368030607
0.001896356974529047
0.002009250215022943
0.002126199526861652
0.0022474773440649
0.002373363654629113
0.002504147241183214
0.002640126668176624
0.002781611059446963
0.002928920695286652
0.003082387445258425
0.003242355046977841
0.003409179233840162
0.003583227713620518
0.003764880001478204
0.003954527117080341
0.004152571168531388
0.00435942486829828
0.004575511060227503
0.004801262397004451
0.005037121395633164
0.005283541239698916
0.005540987916154909
0.005809944620508095
0.006090919907813359
0.006384461930384547
0.00669118249315818
0.007011796914274169
0.007347189401344675
0.007698519897867137
0.008067399054467177
0.008456176777683908
0.008868423886384893
0.009309750576096336
0.009789231999649921
0.01032197518307682
0.01093394562727187
0.01167153402366864
0.01261981674714861
0.01388783584470189
0.01564383536839677
0.01818483417994521
0.02184853519505125
0.02664967830293055
0.03140456763572418
0.03306011999135786
0.02819322723995975
0.01903940296692126
0.0112064427613359
0.006472101791746121
0.003937588128300931
0.002576059405775001
0.001764307253598436
0.001201131777201992
0.0007800233962590623
0.0004710972128906308
0.0002593054963256776
0.0001277584563466908
5.560711707730563e-05
2.119581486819927e-05
7.0324558719958e-06
2.025605035332737e-06
5.128663714108675e-07
1.300961129306109e-07
9.094002456134595e-08
3.728916649015296e-07
2.33298114391072e-06
1.703276387711547e-05
0.0001578546107612486
0.001333991907650454
0.007324019416620214
0.02619502374111207
0.07133722921615003
0.1765576396779865
0.493690533318597
1.071884236801506e-09
2.874069098347147e-08
1.865249393386862e-07
6.522501426032625e-07
1.664445641772602e-06
3.532034245647013e-06
6.655035259942886e-06
1.155205329923442e-05
1.889228916542664e-05
2.952762229309327e-05
4.451471847329103e-05
6.510769307377555e-05
9.269041768872097e-05
0.0001286129243833261
0.0001739178281122873
0.0002290089793465741
0.0002934054526434066
0.0003657513738535603
0.0004441337980515839
0.0005265647638212794
0.0006113951392226824
0.0006975167845731493
0.000784358988799088
0.0008717683849014298
0.0009598612284805065
0.001048899433687835
0.001139206426103616
0.001231118951296783
0.001324964249175601
0.001421052403277034
0.001519676514013899
0.001621116206385547
0.001725642077627499
0.001833519973019956
0.001945014678193342
0.002060392950797079
0.002179925955158501
0.002303891202404696
0.002432574097889129
0.002566269178836752
0.002705281104972652
0.002849925446304425
0.003000529295855672
0.003157431724419617
0.003320984086063726
0.003491550178150941
0.003669506257485747
0.003855240916371465
0.004049154828317253
0.004251660386128699
0.004463181276284246
0.004684152070144706
0.004915017966594048
0.00515623491173669
0.005408270455928539
0.005671605925317761
0.005946740817799742
0.00623420086418693
0.006534552031847295
0.006848424088933429
0.007176549522265998
0.007519827173707027
0.007879425926735227
0.008256953948580061
0.00865473676547358
0.009076279438138579
0.009527047847130543
0.01001582079539531
0.0105571051554853
0.01117563276228337
0.01191517900021706
0.01285654416164554
0.01410628406469831
0.01582327987557714
0.01828113575294486
0.0218214694135754
0.02652400810101433
0.03135949031678108
0.03345903689406018
0.02920765323963575
0.02008088594099255
0.01185935223338847
0.006800849564125527
0.004092733215699209
0.002650531334909569
0.001804400969984962
0.00122610682693186
0.0007966964817473607
0.0004821401402727458
0.0002661876595772222
0.0001316250938035601
5.751417965831167e-05
2.201155299946453e-05
7.333102260890084e-06
2.120541681782075e-06
5.383936463582037e-07
1.358186188848516e-07
9.147768772846117e-08
3.697922104283108e-07
2.314391723738661e-06
1.692222306328533e-05
0.00015726513473806
0.001332240837096092
0.00732148968805295
0.0261941009517101
0.07135157682049229
0.1766298047162485
0.4937998130271317
1.128703618944985e-09
3.033626156852789e-08
1.970968595074236e-07
6.895841445226443e-07
1.760235686550136e-06
3.735958112539482e-06
7.039929977158444e-06
1.222041823197644e-05
1.998399860623482e-05
3.122806271534977e-05
4.706129898351979e-05
6.879066595245935e-05
9.784169162470372e-05
0.0001355761231978563
0.00018299810255133
0.0002404142974853878
0.000307205486852045
0.0003818790864012502
0.0004624311488072077
0.0005468470176705191
0.0006335032587438096
0.0007213434795062668
0.000809851619212356
0.0008989192453588192
0.0009886944451013976
0.001079459560316164
0.001171550385527976
0.001265311111784387
0.001361073790882019
0.001459152129893325
0.001559842479974114
0.001663427761237793
0.001770182100074123
0.001880375178493927
0.001994275944921694
0.002112155644071943
0.00223429024445362
0.002360962374502055
0.002492462870387753
0.002629092020901572
0.002771160570419134
0.002918990523882277
0.003072915782593998
0.003233282625897423
0.003400450049128089
0.003574789959928133
0.003756687236210911
0.003946539648546282
0.004144757657870312
0.004351764110782194
0.004567993876910299
0.00479389350665856
0.005029921045306184
0.005276546222702603
0.005534251375160608
0.005803533663731956
0.006084909481860745
0.00637892245587238
0.006686157257277314
0.007007262742255218
0.00734299002720446
0.007694254545340761
0.008062236836600366
0.008448546513963921
0.008855490677847577
0.009286518140356465
0.009746966558271376
0.01024534742024164
0.010795623809309
0.01142141278348412
0.01216414566279391
0.01309985651722862
0.01433409861528296
0.01601725839943635
0.01840004380064143
0.02182430906332527
0.0264263799720776
0.03131554745523408
0.03379759708263094
0.03016206834331087
0.02112738380391828
0.0125348968801719
0.007142667635635229
0.004253288169304243
0.002726799772175274
0.001844784376298378
0.001250910656247087
0.000813134648191108
0.0004930039616489556
0.0002729677043027525
0.0001354469607094649
5.940657103541507e-05
2.282434119694161e-05
7.633929075811528e-06
2.215948727325415e-06
5.641620491179585e-07
1.416265007944655e-07
9.20602248839187e-08
3.668294317214968e-07
2.296531907213136e-06
1.681608965933021e-05
0.0001567079941468897
0.001330697783988004
0.00731977733284172
0.02619515894473871
0.07136924890766977
0.1767064285710137
0.4939140627498501
1.188030085049608e-09
3.200207439856724e-08
2.081346353150023e-07
7.285648838439101e-07
1.86025301837735e-06
3.948879412069385e-06
7.441784053420269e-06
1.291813993654223e-05
2.112336871436124e-05
3.300194839098693e-05
4.97159261857533e-05
7.262552247858247e-05
0.0001031964023760483
0.0001427976071240845
0.0001923875730985521
0.0002521679296686112
0.0003213764343860919
0.0003983847181662312
0.0004811032900715602
0.0005674971624845678
0.0006559729334827309
0.00074552762211194
0.000835699729919075
0.0009264250863714835
0.00101788307900583
0.001110376320480318
0.001204253132132873
0.001299865467183389
0.001397550528158091
0.001497625921278673
0.001600391427158654
0.001706133340912453
0.001815129315570732
0.001927652805927797
0.002043976820113613
0.002164376966537227
0.002289133889274002
0.00241853521158563
0.002552877093289
0.002692465487357425
0.002837617159603463
0.002988660513233188
0.003145936247736568
0.003309797868219795
0.003480612054202333
0.003658758892039404
0.003844631972661891
0.004038638360760878
0.004241198443941755
0.004452745686532782
0.004673726332394971
0.004904599134999304
0.005145835248511635
0.005397918498595632
0.005661346381423862
0.005936632346414431
0.006224310235432041
0.006524942252257682
0.006839132621747472
0.007167550358908537
0.007510966587834074
0.007870315153132832
0.008246790739994882
0.008642007958283062
0.009058260808520679
0.009498950292119024
0.009969300011557653
0.01047757939757894
0.01103725546190128
0.01167092522551623
0.01241786842835395
0.01334945924275368
0.01457052296291839
0.01622382664327675
0.01853934034880382
0.02185560863985403
0.02635554054328547
0.0312741843397108
0.03408515398817193
0.03105412769195414
0.02217368034341693
0.01323201426902962
0.007497590088068919
0.004419250013631743
0.002804859769470923
0.001885458752717472
0.001275543932904181
0.0008293372489840176
0.000503686236381979
0.00027964236686989
0.0001392212490632535
6.128246207281168e-05
2.363322225798277e-05
7.934526443491729e-06
2.311681795645878e-06
5.901296842943288e-07
1.475095584694431e-07
9.268447979077567e-08
3.639966892795171e-07
2.279368203117011e-06
1.671417071589963e-05
0.0001561818994855638
0.001329355207611644
0.007318854861898977
0.02619813349681516
0.07139017565559887
0.1767874719505527
0.4940334314808576
1.24831838058026e-09
3.369795356354804e-08
2.193812764745669e-07
7.683002648290788e-07
1.962232390925747e-06
4.166012873636111e-06
7.851627028089713e-06
1.362974588603055e-05
2.228530194182714e-05
3.481046637845289e-05
5.242088238576258e-05
7.652933012564516e-05
0.0001086392125462744
0.0001501222820582802
0.0002018852262531735
0.000264019726418422
0.0003356200860317202
0.0004149273759732789
0.0004997749159302895
0.0005881147679214076
0.0006783875510951419
0.0007696444227496469
0.0008614773160849584
0.0009538646472821003
0.001047015599604544
0.0011412519285928
0.001236933681565699
0.001334419987136087
0.00143405272818905
0.001536153000909527
0.001641023641400983
0.001748953975217097
0.00186022486721821
0.001975113263656631
0.002093895986098431
0.002216852796144037
0.002344268839571588
0.002476436595238417
0.002613657440364477
0.002756242918126749
0.002904515771713579
0.003058810787850779
0.003219475478145451
0.003386870615754636
0.003561370635045512
0.003743363900260622
0.003933252844479799
0.004131453984822964
0.004338397824906004
0.004554528668203189
0.00478030438753349
0.005016196229482133
0.005262688786591444
0.005520280353427878
0.005789484011538643
0.006070829987906967
0.00636487014394653
0.006672185937703771
0.006993401967627059
0.007329208424285022
0.007680397732532401
0.008047923844635017
0.008432997897911477
0.008837242773848593
0.009262944258768575
0.009713463247742426
0.0101939221725203
0.01071237126473668
0.0112818242948655
0.01192394124297817
0.01267600322329274
0.01360484924899868
0.01481486699044877
0.01644221849121626
0.01869777654692551
0.02191366255732323
0.02630953947286355
0.03123588826311082
0.03433145602615156
0.03188304334831225
0.02321395091712655
0.01394865818269197
0.007865083561575392
0.004590327255888177
0.002884562839340491
0.001926352938245236
0.001299965513165949
0.0008452766640412929
0.0005141668828106646
0.0002861973835217347
0.0001429388694436305
6.313684924118154e-05
2.443584766030079e-05
8.233960041947096e-06
2.407427233079273e-06
6.162081004960209e-07
1.534468808265906e-07
9.334608236606623e-08
3.612921709491347e-07
2.262896301252351e-06
1.661645882436688e-05
0.0001556870386499435
0.001328214973765553
0.007318727445869969
0.02620302000339279
0.07141440378821837
0.176873090895945
0.4941581514370294
1.310141590994961e-09
3.543829872879992e-08
2.309270135656698e-07
8.090992694338077e-07
2.0669499787486e-06
4.388981957933107e-06
8.272470236545034e-06
1.436036386675847e-05
2.347797483022863e-05
3.666596242556936e-05
5.519391763712578e-05
8.052644019896092e-05
0.0001142020152001968
0.0001575900852984485
0.0002115391260828799
0.0002760258295629968
0.0003500008343627271
0.0004315802101219149
0.0005185286307245304
0.0006087926335389323
0.0007008508553760257
0.0007938092932834397
0.0008873120370040824
0.0009813781112540979
0.001076244571863935
0.001172250749991148
0.001269767245571414
0.001369159515392237
0.001470773517947629
0.001574933402907584
0.00168194474242628
0.001792099653378785
0.001905682030610806
0.00202297217028402
0.002144250595932807
0.002269801132794656
0.002399913354177212
0.002534884533575637
0.00267502121468643
0.002820640489341929
0.002972071046310653
0.003129654034779493
0.003293743770611249
0.003464708302774618
0.003642929848462337
0.003828805101065272
0.004022745415643029
0.004225176874993297
0.004436540249717039
0.004657290875888336
0.004887898496190908
0.005128847142987909
0.005380635196266316
0.005643775830986287
0.005918798193847053
0.006206249847634588
0.006506701322198699
0.006820754088970952
0.007149054016678419
0.007492313550412197
0.00785134774574834
0.008227132356498752
0.00862089721886977
0.009034276616049892
0.009469552727814049
0.009930053545664055
0.01042081232173712
0.01094968138789328
0.01152926168794883
0.01218035813054488
0.01293843139976202
0.01386622130029257
0.01506721565072576
0.01667160656944858
0.01887399081533907
0.02199686057923773
0.02628727382579669
0.03120284616737142
0.03454581068549287
0.03264968640170324
0.0242428082805883
0.01468284514237132
0.008244726769949548
0.004766295587363367
0.002965790492792291
0.001967413825593511
0.001324147668503682
0.0008609355689210688
0.0005244332470607439
0.0002926233207568461
0.000146593498084206
6.496609785257998e-05
2.523044806340135e-05
8.531503889379578e-06
2.502934822793479e-06
6.423251121506578e-07
1.594209982141407e-07
9.404094511834858e-08
3.587121878393741e-07
2.247100622895336e-06
1.652287541894615e-05
0.0001552231098593786
0.00132727706322582
0.007319398520863781
0.02620981055749745
0.07144218267859463
0.1769636460401118
0.4942882762730116
1.374598337836472e-09
3.725227974338872e-08
2.429603421818094e-07
8.516196775643994e-07
2.176081419678122e-06
4.62133385413504e-06
8.710971371207606e-06
1.51214794645929e-05
2.471999287185954e-05
3.859710411924018e-05
5.80773610694826e-05
8.467696744701029e-05
0.0001199670161680831
0.0001653092329425635
0.000221486350853682
0.0002883533699186204
0.0003647150413505475
0.0004485659495689855
0.0005376089771179931
0.000629791574020656
0.0007236342084215736
0.0008182988680677293
0.000913481317685683
0.001009240103410353
0.001105839074109238
0.001203634299268533
0.001303006357213031
0.00140432666140261
0.001507945005709598
0.001614188431719135
0.001723365129612646
0.001835769914981187
0.001951689635386132
0.002071407870818229
0.002195208789626695
0.002323380231659806
0.002456216156989919
0.002594018599274466
0.002737099241491166
0.002885780702639027
0.003040397601137064
0.00320129743774517
0.003368841326959594
0.003543404593726845
0.003725377244610437
0.0039151643185886
0.004113186120755678
0.004319878345296208
0.004535692098540779
0.004761093848951832
0.004996565348069005
0.00524260360284402
0.005499721029834637
0.005768446004561439
0.006049324142340523
0.006342920839329404
0.006649825900570346
0.006970661542780346
0.007306095786850074
0.00765686439944385
0.00802380637808252
0.008407920929817521
0.008810458749176209
0.009233068481267767
0.00967803299640755
0.01014865403072455
0.0106498866651856
0.01118940490371852
0.01177943442712449
0.0124400037896089
0.01320493769253878
0.01413338336518396
0.01532691083406327
0.01691106753857912
0.01906652572483443
0.02210359217713447
0.02628974728492401
0.03118144303222675
0.03473602514880386
0.03335631096516795
0.02525547368676033
0.01543265795865486
0.008636194584999233
0.004946991302562683
0.003048450310620294
0.002008602907164358
0.001348073015795355
0.0008763043828335881
0.0005344782157333827
0.000298914344324227
0.0001501808780301719
6.676760321254638e-05
2.601569437228049e-05
8.826592258313281e-06
2.598003746438571e-06
6.684213496039452e-07
1.654171937801929e-07
9.476527962384065e-08
3.562519351677553e-07
2.231958659141956e-06
1.643329601009682e-05
0.0001547894062755229
0.00132653834115598
0.007320857995430603
0.02621838628820755
0.07147300909787377
0.1770596228240545
0.4944239190049786
1.441423976963248e-09
3.913269174412687e-08
2.554342859024965e-07
8.956973574948914e-07
2.289209696774442e-06
4.862190431685994e-06
9.16549496083389e-06
1.591029899665622e-05
2.600688119555147e-05
4.059707162618317e-05
6.106122212912292e-05
8.896674459139793e-05
0.0001259147052291604
0.0001732536830535739
0.0002316934497394404
0.0003009613591993424
0.0003797149986954223
0.0004658316159173877
0.0005569591744213257
0.0006510520623459606
0.0007466759599665597
0.000843049791514228
0.0009399205417225802
0.001037385320968566
0.001135733802740909
0.001235337987155152
0.001336587797407124
0.001439860106902226
0.001545508147284209
0.001653861527469366
0.001765230789484261
0.001879913230589136
0.001998198478208567
0.002120373262437688
0.002246725297559757
0.002377546369872707
0.002513134784051505
0.00265379731477729
0.002799850782902575
0.002951623348225811
0.003109455583686264
0.003273701374620663
0.00344472867238846
0.003622920118792606
0.003808673552456062
0.004002402400545255
0.004204535962044082
0.004415519588428395
0.004635814774838803
0.004865899187132761
0.005106266672072544
0.005357427329184521
0.005619907775218942
0.005894251811140452
0.006181021824232922
0.006480801445332294
0.00679420027242477
0.007121861924113593
0.007464477392654438
0.007822806781794797
0.008197714290945868
0.008590224167282494
0.009001610019192259
0.00943353763521673
0.009888294559414042
0.01036916236470924
0.01088102796940951
0.01143140477817196
0.01203217726303758
0.01270266947537079
0.01347524061418538
0.01440591197656968
0.01559311022939203
0.0171589457795741
0.0192738677502008
0.02223221163141501
0.02631713473268975
0.03117501487928605
0.03490875023105287
0.03400588637401079
0.02624754156166897
0.01619609699303196
0.009039121138364036
0.005132241667941078
0.003132442522621981
0.002049878706422479
0.001371723834688203
0.0008913741116444658
0.0005442954514265026
0.000305065252943832
0.0001536971505226407
6.853896477572739e-05
2.679034379407979e-05
9.118689286359249e-06
2.692441493123185e-06
6.94439243073271e-07
1.714210372782211e-07
9.551534264812497e-08
3.539066894717839e-07
2.21744819755639e-06
1.634759629383464e-05
0.0001543851816613832
0.001325995011775112
0.007323092165144986
0.0262287657210923
0.0715062869783446
0.1771585072630472
0.4945653206179074
1.510257340572833e-09
4.106993706468094e-08
2.682866487135646e-07
9.411146751059274e-07
2.405778982620539e-06
5.110371418528893e-06
9.633815091585604e-06
1.672295013549484e-05
2.733227664574032e-05
4.265583225159796e-05
6.413017233584302e-05
9.337297467153482e-05
0.0001320121194039049
0.000181377413114102
0.0002420990158385936
0.0003137722484959014
0.0003949084561657657