/*--------------------------------*- C++ -*----------------------------------*\
| =========                 |                                                 |
| \\      /  F ield         | OpenFOAM: The Open Source CFD Toolbox           |
|  \\    /   O peration     | Version:  v1812                                 |
|   \\  /    A nd           | Web:      www.OpenFOAM.com                      |
|    \\/     M anipulation  |                                                 |
\*---------------------------------------------------------------------------*/
FoamFile
{
    version     2.0;
    format      ascii;
    class       volScalarField;
    location    "1000";
    object      nut;
}
// * * * * * * * * * * * * * * * * * * * * * * * * * * * * * * * * * * * * * //

dimensions      [0 2 -1 0 0 0 0];


internalField   nonuniform List<scalar> 
11031
(
0.000143926885376734
0.0001591245826801384
0.0001755496054808851
0.0001932571177963501
0.0002122962032909823
0.0002327069680588326
0.0002545167115396006
0.0002777348046457704
0.0003023457330471127
0.0003282994739115846
0.0003554979062975653
0.0003837751947763934
0.0004128688478729136
0.0004423761578939002
0.000471687592493144
0.000499884058658659
0.0005255789808198337
0.0005466815093421902
0.0005600652002367628
0.0005611847800701007
0.0005440754468591972
0.0005128006021276029
0.0004846739377416768
0.0004644471842342236
0.0004556992496752474
0.0004594013399959043
0.000465727186677045
0.0004538691585913372
0.0004044203598411438
0.0003291318289540928
0.0002583022867445887
0.0002086879502160381
0.0001817967965753132
0.0001723947542149731
0.0001714772042075542
0.0001679255369394505
0.0001543424845967315
0.0001303911862364825
9.995321038333712e-05
6.798581606516216e-05
3.978269475566831e-05
1.95419991256203e-05
8.004673701397517e-06
2.755131314522779e-06
8.076895864436486e-07
2.07930932953552e-07
5.706690859205654e-08
5.279961944900543e-08
2.390003888546576e-07
1.512085645662898e-06
1.094926803361727e-05
8.899218889173448e-05
0.0004481954768400285
0.001298256821612923
0.002864674345731939
0.005292346256258183
0.008656890862608145
0.009433583320859669
0.0001193303477709567
0.0001324993931510769
0.0001467972302114016
0.0001622864863858105
0.0001790276194338726
0.0001970772039339849
0.0002164857020142603
0.0002372945503396386
0.0002595323237093368
0.0002832096259193778
0.0003083121860344121
0.0003347913644960955
0.000362550833282994
0.0003914274816334408
0.0004211634445849749
0.0004513642959349164
0.0004814355331416223
0.0005104851399939721
0.0005371742998926089
0.0005594932701110221
0.0005744437244244284
0.0005776509799920896
0.0005631163943315943
0.0005325084567136721
0.0005025815221445559
0.0004806395006893525
0.000469460213483784
0.0004686852589207027
0.0004767472683237225
0.0004673115498449014
0.0004209888983623967
0.000344780801161446
0.0002698279894779917
0.0002157461176199212
0.0001853307375082935
0.0001735741922949899
0.0001716153270907968
0.0001681992765141342
0.0001552703057733062
0.0001318699032972034
0.0001016583451645939
6.95903004979631e-05
4.102016124956786e-05
2.030405938511187e-05
8.376875320175795e-06
2.901824227605481e-06
8.553630792868003e-07
2.208651434362371e-07
5.99388805247697e-08
5.291272425424648e-08
2.365485096372716e-07
1.497731557075478e-06
1.086553558014051e-05
8.861278699333875e-05
0.0004476327855449819
0.001298002169282039
0.002864805083006427
0.005294048053371021
0.008663775617439582
0.009447248585375548
9.805427531758734e-05
0.0001093649406693403
0.0001216967009788699
0.0001351142432692324
0.0001496824454295458
0.000165465350503508
0.0001825248314987898
0.0002009188588985114
0.0002206992512873194
0.000241908743971132
0.000264577141465547
0.0002887162146375628
0.000314312839179852
0.0003413196126051963
0.0003696417720578912
0.0003991185667046654
0.0004294961601434375
0.0004603874118624413
0.0004912111821436827
0.0005210997713828775
0.0005487577372304304
0.0005722502424190971
0.000588701336031642
0.0005939149794388409
0.0005820600943789216
0.0005524867999355565
0.0005207443308251827
0.0004971828315810209
0.0004837380124329528
0.0004773558870429506
0.0004879788700547738
0.0004804581038198236
0.0004373571873981526
0.000360727743307981
0.0002818322844837401
0.0002232201739567996
0.0001891814869259283
0.0001749738982180637
0.0001718518672139864
0.0001684608060204218
0.0001561311764751984
0.0001332741566869656
0.0001033019411220999
7.115369907495811e-05
4.223819802369924e-05
2.106166916093693e-05
8.750254953954771e-06
3.05011638802788e-06
9.038786344454507e-07
2.341092823445622e-07
6.290243090924125e-08
5.306490235867727e-08
2.342030990071841e-07
1.483937773699013e-06
1.07850595016996e-05
8.825124683421081e-05
0.0004471124884861958
0.001297814519023046
0.002865048662850969
0.005295882925013701
0.008670835972330945
0.009460767568526441
7.273831889684905e-16
1.02951980350871e-13
1.890267808705027e-12
1.374212292856242e-11
6.142940633770823e-11
2.055462811483975e-10
5.695326635032688e-10
1.384226423654047e-09
3.057097947097668e-09
6.276129447784196e-09
1.21580852033667e-08
2.244551121521097e-08
3.974182338490399e-08
6.774675997165892e-08
1.114226090218499e-07
1.770117607866156e-07
2.718771087203449e-07
4.042516941958217e-07
5.830773420356691e-07
8.180670356158601e-07
1.119955307787687e-06
1.500765935844438e-06
1.9739419513401e-06
2.554309691507971e-06
3.257955858075725e-06
4.102090391668373e-06
5.104945697560685e-06
6.285756492391032e-06
7.664823815858358e-06
9.263640881787407e-06
1.110505580818773e-05
1.321345100238553e-05
1.561492537681472e-05
1.833747131242653e-05
2.141114214602432e-05
2.486820817511969e-05
2.874330001817092e-05
3.307353817929295e-05
3.789864716337191e-05
4.326105159625614e-05
4.92059507956859e-05
5.578136689990157e-05
6.303816022307523e-05
7.103000375880435e-05
7.981330659992903e-05
8.944707357380533e-05
9.999268504963522e-05
0.0001115135777315008
0.0001240748008156497
0.0001377424167860778
0.0001525827067565287
0.000168661129882121
0.0001860409703144514
0.0002047815840767387
0.0002249361276001165
0.0002465486053374702
0.0002696500073915773
0.0002942532071117939
0.0003203461321975626
0.0003478824763616716
0.0003767688268920595
0.0004068464548434315
0.0004378650060803821
0.000469443723435128
0.0005010133215300317
0.000531727905256649
0.0005603313540204472
0.0005849578009887102
0.000602847440433824
0.0006099870162695525
0.0006007944993709799
0.0005725995200638236
0.0005392047343683955
0.0005140442328453906
0.0004984763493751591
0.0004875244770634575
0.0004994156541610066
0.0004933781316930454
0.0004534810607630893
0.0003769199842004384
0.0002942882796548158
0.0002310961436976778
0.0001933369393838615
0.0001765883202592212
0.0001721913445514381
0.0001687184191289236
0.0001569308925020933
0.0001346062229512796
0.0001048839613581043
7.267459039381682e-05
4.343482507921445e-05
2.181319034177132e-05
9.123889544931744e-06
3.199620018340989e-06
9.531072008160612e-07
2.476283874026624e-07
6.594970936858233e-08
5.325420923495751e-08
2.319613225270741e-07
1.470691770437955e-06
1.070778199385207e-05
8.790742960134482e-05
0.0004466346563840922
0.001297694211150293
0.002865405661682717
0.005297847009497654
0.008678076059317258
0.009474145444550901
7.690072402168339e-16
1.09332089288682e-13
2.011610669552809e-12
1.463948126429345e-11
6.547892324529383e-11
2.191705373663193e-10
6.073868633232537e-10
1.47625932330105e-09
3.259882135539238e-09
6.690115847386127e-09
1.295222831563403e-08
2.388941289288816e-08
4.224243489846811e-08
7.188174524008423e-08
1.179580017432246e-07
1.868931542720008e-07
2.861964369891982e-07
4.242105503581104e-07
6.099743862592715e-07
8.533198759183944e-07
1.165142344494433e-06
1.557667582486268e-06
2.044574768110439e-06
2.64095162392222e-06
3.363149666797616e-06
4.228631865314549e-06
5.2558799439562e-06
6.464388077537412e-06
7.874737427808641e-06
9.508729822861516e-06
1.138955628056523e-05
1.354198063117231e-05
1.599252498051525e-05
1.876964941950032e-05
2.190392203855932e-05
2.542817743954297e-05
2.93776626597741e-05
3.379016932136373e-05
3.870615032338549e-05
4.416881844178942e-05
5.022422313443327e-05
5.692130060068422e-05
6.431189048771579e-05
7.245071103592141e-05
8.139528220214394e-05
9.120578375918068e-05
0.0001019448322035716
0.0001136771563206797
0.0001264691462252581
0.0001403882443012811
0.0001555021379661258
0.0001718777030933489
0.0001895796317461943
0.0002086686568476242
0.0002291992566816105
0.0002512166788014293
0.0002747530590243456
0.0002998223138480127
0.0003264133352606675
0.000354480782475694
0.0003839323942361365
0.0004146111534778331
0.0004462696906111487
0.0004785328116643292
0.0005108417075234171
0.0005423699501434304
0.0005718968018710767
0.0005976189536618468
0.0006168832710620486
0.0006258491499317895
0.0006191933618221493
0.0005926881330722848
0.0005579885611583056
0.0005311939914247715
0.0005136252543607647
0.0004981056370132215
0.0005110211261732621
0.0005061305269704208
0.0004693312943015991
0.0003932985892803501
0.0003071686716682136
0.0002393607935211709
0.0001977855581117978
0.0001784109050250738
0.0001726366004366086
0.0001689794656559717
0.0001576752290845219
0.0001358687878864478
0.0001064048747784417
7.41520336007506e-05
4.460842502233159e-05
2.255718243582534e-05
9.496932707053619e-06
3.34996916446113e-06
1.002924161665364e-06
2.613879817903798e-07
6.90728009683426e-08
5.347859919892886e-08
2.298199740632217e-07
1.457978832948324e-06
1.063363090424503e-05
8.758111104327191e-05
0.0004461992299623011
0.001297641556859944
0.002865876634860762
0.005299937080928374
0.008685500808800229
0.009487364243796795
8.124949781890505e-16
1.160034290967266e-13
2.138562144183643e-12
1.557858609854161e-11
6.97173758461212e-11
2.334304309535997e-10
6.4700126946139e-10
1.572538851860023e-09
3.471894920840662e-09
7.122525876920455e-09
1.378052493022609e-08
2.539236783605302e-08
4.483825754066971e-08
7.615937225128517e-08
1.246910139609144e-07
1.970269159015883e-07
3.008135834502444e-07
4.444986127879957e-07
6.372229435115826e-07
8.889544006984576e-07
1.210776237460983e-06
1.615146426324703e-06
2.115998561159337e-06
2.728676571696689e-06
3.469779881169229e-06
4.357011912552292e-06
5.409095375795501e-06
6.645776588149048e-06
8.087910117691184e-06
9.757600610411034e-06
1.167837732966867e-05
1.38753821287838e-05
1.637555819871813e-05
1.920783245994599e-05
2.240328805974195e-05
2.599532530006953e-05
3.001981000257907e-05
3.451520814835543e-05
3.952270503217426e-05
4.508630622768951e-05
5.125291653373047e-05
5.807239180392337e-05
6.559755692857279e-05
7.388418147167896e-05
8.29909023475171e-05
9.297908021365011e-05
0.0001039125731120041
0.0001158574068354205
0.000128881316492607
0.0001430531272454856
0.0001584419338377112
0.0001751160273557988
0.0001931415028322307
0.0002125804605164241
0.0002334886845988283
0.0002559126410722439
0.0002798855745712787
0.000305422390437934
0.0003325128651159013
0.0003611125047335032
0.0003911300200530671
0.0004224098273460244
0.0004547070966353091
0.000487651466036826
0.0005206933711221307
0.0005530237367286995
0.0005834535373303977
0.0006102356260227171
0.0006308123889600557
0.0006414957631905949
0.0006371763303237019
0.0006125949687338257
0.0005770896517565665
0.0005486070677978487
0.0005291460745030995
0.0005082258286452718
0.0005189621164577619
0.0005187662150384669
0.0004848941245969636
0.0004098087390466755
0.0003204479085073619
0.000248003545341621
0.000202517911233338
0.0001804351578593991
0.0001731892539902898
0.0001692504393150175
0.0001583700334567268
0.0001370651979363678
0.0001078660222941709
7.558595813589422e-05
4.575807949001318e-05
2.329263389703468e-05
9.868738381847709e-06
3.500871791072066e-06
1.053227144430311e-06
2.753591112535854e-07
7.226489787793319e-08
5.373605749608744e-08
2.277749352894935e-07
1.445778744945207e-06
1.056249849036463e-05
8.72718342067374e-05
0.00044580554114397
0.0012976559021261
0.002866460629192405
0.005302148874667059
0.008693114617706865
0.009500414216920583
8.581819006994694e-16
1.230134982744966e-13
2.271994466267335e-12
1.656577954582486e-11
7.417311242955439e-11
2.48420750080194e-10
6.886380147670911e-10
1.67369963758621e-09
3.694528627640731e-09
7.576189265087524e-09
1.46483816148166e-08
2.696419009887272e-08
4.754636382107676e-08
8.060833758299935e-08
1.316686163543991e-07
2.074882960749468e-07
3.158463978404872e-07
4.652946692039615e-07
6.650819335335416e-07
9.253226352355465e-07
1.257299046954452e-06
1.673708750000149e-06
2.188741819001996e-06
2.817995465954545e-06
3.578310584500963e-06
4.487622838031989e-06
5.564887433304781e-06
6.830095125947825e-06
8.304367582841798e-06
1.001010763488803e-05
1.197117990441664e-05
1.421310305911572e-05
1.676324171028608e-05
1.965099133730975e-05
2.290795307176703e-05
2.65680968866706e-05
3.066791224753888e-05
3.524654509877506e-05
4.034591934845278e-05
4.601084006300055e-05
5.228907444891467e-05
5.923140532520731e-05
6.689165022729848e-05
7.532663740457457e-05
8.459612785975073e-05
9.476266984038986e-05
0.0001058913689702655
0.0001180495531563328
0.0001313063063239479
0.0001457318385597254
0.0001613966518978334
0.0001783704498103705
0.0001967207238386704
0.0002165109303689008
0.0002377981421038178
0.000260630017801249
0.0002850408739161301
0.0003110465517684305
0.0003386376364430361
0.0003677703707706691
0.0003983542736900472
0.0004302349443638035
0.00046316969751832
0.000496792360991106
0.0005305615404486775
0.0005636836738929849
0.0005949982432033322
0.0006228086203137664
0.0006446427742661729
0.0006569483650992268
0.0006548086324427949
0.0006324047451670433
0.0005965634257968487
0.0005662540414513741
0.0005450003672602586
0.0005189984838257843
0.0005257614204086932
0.0005313327876551101
0.0005001681219984322
0.0004263978721759723
0.0003340999059505301
0.0002570143901696624
0.0002075255345476833
0.0001826544603561877
0.0001738498507586954
0.0001695369443478743
0.0001590208771843736
0.000138198908671819
0.0001092689899481445
7.697657436154546e-05
4.688311472588462e-05
2.401868459804597e-05
1.023872713208577e-05
3.65205785133889e-06
1.103919381357147e-06
2.895138908686523e-07
7.551932444209238e-08
5.402457242227714e-08
2.258220563186222e-07
1.434070947114536e-06
1.04942733392106e-05
8.697909541632429e-05
0.0004454526711587477
0.001297735975163831
0.002867155514171454
0.005304477438198309
0.008700921577057756
0.009513304808630337
9.060430644611791e-16
1.303591388889254e-13
2.411852255571769e-12
1.760066363973484e-11
7.884432794664249e-11
2.641351927896774e-10
7.322782880874369e-10
1.779690629491847e-09
3.927652903961414e-09
8.050788294024939e-09
1.555505882945528e-08
2.86032497859893e-08
5.036339724135873e-08
8.522228540187596e-08
1.388799275485076e-07
2.182607122775971e-07
3.312726327116204e-07
4.865724886860969e-07
6.935237364647412e-07
9.623971439207261e-07
1.304681653548836e-06
1.733316393287154e-06
2.262743380327165e-06
2.90880366937692e-06
3.688567837959365e-06
4.62019210691158e-06
5.722854322299452e-06
7.0167825348945e-06
8.523361285131858e-06
1.02652900586521e-05
1.226676959513984e-05
1.455369795944452e-05
1.71538651606152e-05
2.009714026641024e-05
2.341564821955629e-05
2.714393507230186e-05
3.131912080749062e-05
3.598103856246783e-05
4.11723583799948e-05
4.693869258911126e-05
5.332867874699169e-05
6.039403470482316e-05
6.818957873267378e-05
7.677320578002262e-05
8.620580872859637e-05
9.655113078831866e-05
0.000107875531882694
0.0001202476478000584
0.0001337379157539968
0.0001484179335108363
0.0001643596108407803
0.0001816340611230439
0.0002003101661582312
0.0002204527273893856
0.0002421200886616899
0.0002653610759382202
0.0002902110410164781
0.0003166867096941786
0.0003447794029632724
0.0003744459963607603
0.0004055966651472778
0.0004380779632993302
0.0004716489966435245
0.0005059472167534992
0.0005404384672575393
0.000574343128614262
0.0006065264993397356
0.0006353378044611839
0.0006583823784610046
0.0006722284842496897
0.0006721200179948211
0.0006520630248399057
0.0006163820391095302
0.0005841347401277663
0.0005611557336123515
0.0005311695133408341
0.0005306523256965779
0.0005438640432189723
0.0005151540817506398
0.000443014192434818
0.0003480972156725214
0.0002663832906478447
0.0002128006435119368
0.0001850621482776605
0.0001746180206480137
0.0001698437268320296
0.0001596329712439277
0.0001392733539958824
0.0001106154728413079
7.832425101535324e-05
4.798301004888364e-05
2.473457273427564e-05
1.060636202193027e-05
3.803270409035983e-06
1.154906999486009e-06
3.038248115359607e-07
7.882939179348625e-08
5.434213546548343e-08
2.239573094450632e-07
1.422835449774538e-06
1.042884640178268e-05
8.670239363178171e-05
0.000445139673679108
0.001297880412332743
0.002867958885146419
0.005306918800845471
0.008708927853726685
0.009526053159815336
9.563186855641763e-16
1.380744145685878e-13
2.558761498420919e-12
1.868779352408044e-11
8.375139378596353e-11
2.806418646178759e-10
7.781102782218932e-10
1.89096698052367e-09
4.172265981949781e-09
8.548354795667634e-09
1.650445680788256e-08
3.03166886463472e-08
5.330193571985649e-08
9.002263774254581e-08
1.463602968661796e-07
2.294005074328758e-07
3.471783098272621e-07
5.084564052838794e-07
7.227165244829199e-07
1.000388830328676e-06
1.353167341868468e-06
1.79422470177049e-06
2.338241688693485e-06
3.001287973163637e-06
3.800649783105783e-06
4.75469330511162e-06
5.882812800179465e-06
7.205471589896391e-06
8.744318482171867e-06
1.052235347484173e-05
1.256411884046153e-05
1.489589833429452e-05
1.754591405759847e-05
2.05445154865669e-05
2.392435817335938e-05
2.772057099638561e-05
3.197091114563933e-05
3.671590564002526e-05
4.199897738529339e-05
4.786655280746875e-05
5.43681468038894e-05
6.155641941305866e-05
6.948719699116925e-05
7.821944868777106e-05
8.781520688543382e-05
9.833941738135124e-05
0.0001098597018815755
0.0001224460111407741
0.0001361701420064004
0.0001511050850491992
0.0001673241611151606
0.0001848998941471696
0.0002039025532404574
0.0002243982769881473
0.0002464466659895365
0.0002700976904132722
0.0002953877031842519
0.0003223342653982979
0.0003509293641971604
0.0003811304088203641
0.0004128480881901053
0.0004459297003632247
0.0004801358211663874
0.0005151070209262203
0.0005503155649332189
0.0005849944318344174
0.0006180325092110763
0.0006478212195027313
0.0006720374373584294
0.0006873612101014145
0.0006891847094026917
0.0006715582278749198
0.0006364518621218703
0.0006022476135663197
0.0005775798337008693
0.0005433319240415969
0.000536009604243035
0.0005563750238065013
0.0005298642840114247
0.0004596071886525094
0.000362411528568902
0.0002761008296525212
0.0002183366715470304
0.0001876519814884556
0.0001754927713372047
0.000170174787287945
0.0001602112236088026
0.0001402920496549022
0.0001119074248918422
7.962967610892668e-05
4.905753819527945e-05
2.543973335148071e-05
1.097120267840227e-05
3.954288965259838e-06
1.206107160057127e-06
3.182670856379434e-07
8.218895359844443e-08
5.468680684879561e-08
2.221765410834306e-07
1.412051319243091e-06
1.036610152206942e-05
8.644117202169635e-05
0.0004448654271167705
0.001298087517620008
0.002868867743524824
0.005309470497755775
0.008717143468317534
0.00953867561382727
1.008805478399488e-15
1.461305572316687e-13
2.712197566065084e-12
1.982340316818235e-11
8.887780048047425e-11
2.978870795573769e-10
8.259910373093729e-10
2.007199121648939e-09
4.427686383283264e-09
9.067591772732843e-09
1.749424884093101e-08
3.210046828593193e-08
5.635500199904928e-08
9.499711585210537e-08
1.540875741388967e-07
2.408672417875607e-07
3.634902997951892e-07
5.308179625021276e-07
7.524440510530969e-07
1.038951471938049e-06
1.402230372864322e-06
1.855675797964187e-06
2.41419606730446e-06
3.094080692909792e-06
3.912826942591647e-06
4.889010923249266e-06
6.042247163675413e-06
7.393240795616654e-06
8.963912904485578e-06
1.07775725133712e-05
1.285911184083801e-05
1.523520834126197e-05
1.793452373781595e-05
2.09878950077674e-05
2.44285150841073e-05
2.829210226248744e-05
3.261705747187886e-05
3.744460819352788e-05
4.281893693496351e-05
4.878729113253039e-05
5.540007016731395e-05
6.271088365268951e-05
7.077657360872714e-05
7.96571911216455e-05
8.941591583321302e-05
0.0001001189037913147
0.0001118350458007551
0.0001246356143275771
0.0001385937716459089
0.0001537839055201693
0.0001702807502811287
0.000188158240218513
0.0002074880279082822
0.0002283375806520459
0.0002507677412744923
0.0002748296017554845
0.0003005604832875036
0.000327978735559519
0.0003570769461571931
0.0003878129652628246
0.0004200978627946378
0.0004537794864868785
0.0004886195887070901
0.0005242614015706175
0.000560182881829234
0.0005956284223917148
0.0006295085895948081
0.0006602540367019861
0.0006856090492485762
0.0007023613529420459
0.000706052387184642
0.0006908518144511792
0.000656623110900846
0.0006206000332254817
0.0005942625348551385
0.0005563303917564595
0.0005423134378650314
0.0005688425052100016
0.0005443119264393484
0.0004761319983270711
0.0003770125219992252
0.0002861568621357183
0.0002241273715444498
0.0001904178379724818
0.000176472496705357
0.0001705333924130637
0.0001607601387173472
0.0001412584077597237
0.0001131468470770319
8.089366268693552e-05
5.01066212676102e-05
2.613371497449265e-05
1.133286736467346e-05
4.104915406019078e-06
1.257443710909437e-06
3.328175155770785e-07
8.559216406696865e-08
5.505670707885397e-08
2.204756773298719e-07
1.401697887980702e-06
1.030592249485934e-05
8.619483973244937e-05
0.0004446285360998926
0.001298354978370195
0.002869878169712346
0.005312132671760077
0.008725585180998929
0.009551181816193388
1.062237268263805e-15
1.543538544160903e-13
2.869017176049124e-12
2.098478614410544e-11
9.412228657088407e-11
3.155319736348852e-10
8.749796537082837e-10
2.126090873651175e-09
4.688811727318365e-09
9.597938098723254e-09
1.850377400568561e-08
3.39160500742589e-08
5.945376701545725e-08
1.00027940696006e-07
1.61868959095503e-07
2.52359602603184e-07
3.797593550304733e-07
5.530172338876135e-07
7.818326934004938e-07
1.076937570615219e-06
1.450415105163634e-06
1.915880234068831e-06
2.488467945176844e-06
3.18468952055957e-06
4.022258370502407e-06
5.019968262956338e-06
6.197663313076455e-06
7.576300290019848e-06
9.178082055730275e-06
1.102663536200453e-05
1.314721010209149e-05
1.556688423089388e-05
1.831476511144755e-05
2.14221826649132e-05
2.492287226606781e-05
2.885314649443353e-05
3.325205489750288e-05
3.81615304554356e-05
4.362652060743207e-05
4.969509957786511e-05
5.64185575324851e-05
6.38514605721658e-05
7.205167394282271e-05
8.108033886819277e-05
9.100179099773917e-05
0.0001018834057564522
0.0001137953523170623
0.0001268102338102522
0.0001410025860861764
0.0001564482007703614
0.0001732232300020999
0.0001914030193795656
0.0002110606014193642
0.0002322647626585197
0.0002550775712181567
0.0002795512145971622
0.0003057239443440642
0.0003336148460125799
0.0003632170356925905
0.000394488706315775
0.0004273411726992282
0.0004616226384875004
0.0004970957467625114
0.0005334059537846166
0.0005700362159302016
0.0006062412255813643
0.0006409514361556449
0.0006726339717949274
0.0006990968419048805
0.0007172329361810221
0.0007227433368549527
0.0007100077677411834
0.0006769595811864692
0.0006391965653298283
0.0006111630155912767
0.0005701586543249614
0.000549498720694114
0.0005783044164427749
0.000558509179578025
0.0004925452180691874
0.0003918595304189379
0.0002965302991750319
0.0002301585714548579
0.0001933490392661109
0.0001775531450530857
0.000170921435236231
0.0001612829661844591
0.0001421741832241881
0.0001143337295479035
8.211499479009042e-05
5.112849038834179e-05
2.68149277202691e-05
1.169036673267732e-05
4.254692867111011e-06
1.308750650703669e-06
3.474270127075816e-07
8.902702484894652e-08
5.54492632350594e-08
2.188536467175529e-07
1.391772758447869e-06
1.024830776062378e-05
8.596352155049621e-05
0.0004444293516185872
0.001298683088621369
0.002870989645720256
0.005314915215093893
0.008734284806928666
0.009563585805363452
1.117071163310649e-15
1.628037668503237e-13
3.030261529259183e-12
2.217928651123717e-11
9.951685870283134e-11
3.336807837047823e-10
9.253554864003737e-10
2.248292361951176e-09
4.956998423122102e-09
1.014198221681753e-08
1.953761515024328e-08
3.57710634833498e-08
6.261038314644555e-08
1.051341038824522e-07
1.69734445388553e-07
2.639263823847196e-07
3.960667712568504e-07
5.751895968416227e-07
8.111023064204351e-07
1.114690433849178e-06
1.498234616094921e-06
1.975572514301001e-06
2.562067761703275e-06
3.274455654517579e-06
4.130668989787925e-06
5.149723558310299e-06
6.351698194844449e-06
7.757806679608093e-06
9.390538795328213e-06
1.127384357708969e-05
1.343333237584854e-05
1.589648657445295e-05
1.869286127260166e-05
2.185428065497934e-05
2.541502319786265e-05
2.941199587147002e-05
3.388489649689075e-05
3.887636292174946e-05
4.443210670890201e-05
5.060102803346398e-05
5.74353071089903e-05
6.49904660072444e-05
7.332539302261572e-05
8.250231973460803e-05
9.258673850017442e-05
0.0001036472452420732
0.0001157552889986997
0.0001289848052697777
0.0001434117050806882
0.0001591131849794751
0.0001761668148512577
0.0001946493495917026
0.0002146351966386682
0.0002361944524481746
0.0002593903951069989
0.0002842762842914074
0.0003108912678787041
0.0003392551191612419
0.0003693614156047649
0.0004011685996311955
0.0004345881000921992
0.0004694682889973533
0.0005055724229873671
0.0005425477583967338
0.0005798815803167618
0.0006168377925572425
0.0006523649544874631
0.0006849637914871418
0.000712501700198702
0.0007319713266867634
0.0007392308958487513
0.0007288861959186819
0.000697334655017347
0.0006580943401786353
0.0006282723233519011
0.0005844785158020044
0.0005571514358140475
0.0005822872667082035
0.0005724745256253865
0.0005088116527731388
0.000406912885470744
0.0003072028309620361
0.0002364186393439044
0.0001964360778235428
0.0001787304013212288
0.0001713402222058378
0.0001617829254071489
0.0001430417218484654
0.0001154689743431417
8.329342343411091e-05
5.212219295559758e-05
2.748231705945944e-05
1.204298057068808e-05
4.403271010265361e-06
1.359896262500469e-06
3.620556125736074e-07
9.248352125819251e-08
5.586206043540988e-08
2.173082098107947e-07
1.382266465791969e-06
1.019321161623448e-05
8.574710415027191e-05
0.0004442680346800828
0.001299072685124506
0.002872202665656798
0.00531783856306865
0.008743299296678296
0.009575872652483022
1.174225939748493e-15
1.716104102346512e-13
3.198321702062563e-12
2.342431288954466e-11
1.051394789025993e-10
3.525948560051025e-10
9.778437017665771e-10
2.375566696732136e-09
5.23613397759083e-09
1.070766670576445e-08
2.06110132124685e-08
3.76932043779902e-08
6.587274625982028e-08
1.103946563308236e-07
1.778087836679225e-07
2.757560888282302e-07
4.126856735708294e-07
5.977151554795078e-07
8.407623581430165e-07
1.152870206342542e-06
1.546519488142416e-06
2.035771851555409e-06
2.636220146387443e-06
3.364824651998395e-06
4.239739552171401e-06
5.280205698850835e-06
6.506540310878352e-06
7.940217912828067e-06
9.604018521129925e-06
1.152221603969327e-05
1.372078497658765e-05
1.622761095211333e-05
1.907269679019557e-05
2.228836022356375e-05
2.590942154625062e-05
2.997338040798581e-05
3.452058091400506e-05
3.959436359926437e-05
4.524120192832688e-05
5.151081982548614e-05
5.845628545835128e-05
6.613407493786692e-05
7.460409787745734e-05
8.392967469740347e-05
9.417745311644205e-05
0.0001054172483693332
0.0001177217881445542
0.0001311663389387551
0.0001458281851071546
0.0001617859254216433
0.0001791185433768208
0.0001979041969059686
0.0002182186590455318
0.0002401333225873126
0.0002637126563286219
0.0002890109652801838
0.0003160682569875744
0.0003449049428221655
0.000375514994660819
0.0004078570134499991
0.0004418424165641163
0.0004773195664404571
0.0005140520721253624
0.0005516885912415321
0.0005897201049511245
0.0006274186923202902
0.0006637492846631472
0.0006972432821308602
0.0007258225632547316
0.0007465714927367033
0.000755492614558325
0.0007473964867517699
0.0007176162481099057
0.0006773191212048758
0.00064557986575189
0.0005990510511665181
0.0005649983295020214
0.0005858354465158964
0.0005862407832401312
0.0005249055377848784
0.0004221351446159785
0.0003181586494070434
0.0002428982263257989
0.0001996706927681344
0.0001799999348349282
0.0001717905992623047
0.0001622631098478955
0.0001438637137598914
0.0001165540918938193
8.44293721589816e-05
5.308736122393411e-05
2.813522246056927e-05
1.239019118474575e-05
4.550381079822628e-06
1.41077547168136e-06
3.766705316418636e-07
9.595322477419339e-08
5.629285497118312e-08
2.158364319265358e-07
1.373165194280609e-06
1.014055981270039e-05
8.554527353877485e-05
0.000444144103173593
0.001299523329579296
0.002873513904738019
0.005320979589135939
0.008752714985715665
0.009588038921467453
1.2334731023387e-15
1.80739978571484e-13
3.372565074767337e-12
2.47152333138582e-11
1.109694144517877e-10
3.722049494562556e-10
1.032253063473323e-09
2.507450034495497e-09
5.525191375550323e-09
1.129285982351873e-08
2.171974360853928e-08
3.967439317611279e-08
6.922589979531242e-08
1.157828999900939e-07
1.860463531665689e-07
2.877745714449551e-07
4.295016935132938e-07
6.20426233945102e-07
8.705783209024074e-07
1.191162764561357e-06
1.594865521183604e-06
2.095977031831206e-06
2.710324173271929e-06
3.455097315971564e-06
4.34867739580457e-06
5.410535586274696e-06
6.661232179052021e-06
8.12250619512387e-06
9.817430526685414e-06
1.177060549401163e-05
1.400836936898393e-05
1.655901188273222e-05
1.945298296640718e-05
2.272309300747618e-05
2.640470313539697e-05
3.053590475950345e-05
3.515768751373194e-05
4.031409411588415e-05
4.605235967077857e-05
5.242303183451526e-05
5.94800668881844e-05
6.728089520246983e-05
7.588644783810144e-05
8.536113388517171e-05
9.577275574332869e-05
0.0001071923464476638
0.0001196939097116505
0.0001333540388878618
0.0001482513856835045
0.0001644659427962887
0.000182078096308675
0.0002011673928928205
0.0002218109530477581
0.0002440814432007793
0.00026804449465244
0.0002937554228369385
0.0003212550515037149
0.0003505643756117766
0.0003816776920047814
0.0004145536698216779
0.0004491035938807736
0.0004851756488524668
0.0005225335523453444
0.0005608269935617348
0.0005995500645055074
0.0006379820579593303
0.0006751026513280508
0.0007094711134755302
0.000739058883359418
0.0007610332178923415
0.0007715242783280231
0.0007655116428054794
0.0007377106213944145
0.0006967937770040349