/*--------------------------------*- C++ -*----------------------------------*\
| =========                 |                                                 |
| \\      /  F ield         | OpenFOAM: The Open Source CFD Toolbox           |
|  \\    /   O peration     | Version:  v1812                                 |
|   \\  /    A nd           | Web:      www.OpenFOAM.com                      |
|    \\/     M anipulation  |                                                 |
\*---------------------------------------------------------------------------*/
FoamFile
{
    version     2.0;
    format      ascii;
    class       volScalarField;
    location    "1000";
    object      omega;
}
// * * * * * * * * * * * * * * * * * * * * * * * * * * * * * * * * * * * * * //

dimensions      [0 0 -1 0 0 0 0];


internalField   nonuniform List<scalar> 
11031
(
26.14948591957965
24.83259268290115
23.62686932661224
22.52242397226938
21.51072746618764
20.58448887897595
19.73757522145334
18.96497935756645
18.26284579896932
17.6285727338331
17.06102261360394
16.560897198238
16.13137440487958
15.77918001480138
15.51641154566483
15.36371972030422
15.35606083745437
15.55359968160483
16.06364205880365
17.08807743191511
19.02745022971801
22.19141981141325
26.46513747542137
32.26404375451477
40.02219188473188
49.55740662517291
59.97709451663299
68.86098480309934
71.47713027029938
64.31022504522652
50.99227797907479
37.39397884084454
26.24910018615994
18.10318708283477
12.63740146928126
9.110080439834162
6.789082897759583
5.179203172062516
4.016108296013995
3.180060463748333
2.610773439132911
2.251703653347976
2.03770444217571
1.909719437178022
1.827050935108051
1.76744653415059
1.720713986596829
1.682646910266292
1.651577961363117
1.627991766538416
1.62556697131825
1.821880483150251
3.010276899516157
5.667233520679484
9.161473165842283
13.47683216771899
20.35614694268839
41.81733388621248
29.32134034329933
27.7385368235869
26.29185219898692
24.96812461706964
23.75593386028443
22.64538540025245
21.62794156930541
20.69629628630184
19.84429295343934
19.06688901692839
18.36017607165472
17.72147246288908
17.14951825953833
16.64482414277913
16.21026356879356
15.85206617801103
15.58150012036493
15.41778779170073
15.39333623179438
15.56355857356318
16.02642787692559
16.96437544728338
18.74145111463183
21.71025589176174
25.79925955292943
31.27664496200771
38.63672118188007
47.80909205104896
58.02678600357519
67.17982756219756
70.88344514227109
64.99521385253959
52.18672045649992
38.50336330844765
27.10252485057484
18.68538761377098
12.99814511351297
9.323170234401447
6.915402212089211
5.257262564938609
4.066451834756721
3.212443726654679
2.630381095188777
2.26256099893809
2.043262508710627
1.912468506902005
1.828442470347053
1.768182857389574
1.721093670280923
1.682795385330341
1.651552908096847
1.627814419933561
1.625145840829936
1.820587458922087
3.007108405143967
5.662312922415493
9.156296806261054
13.47125148762615
20.34511819799655
41.77639512697964
33.13332181481397
31.22191962324903
29.47968766566286
27.889129727407
26.4350844981877
25.10439490224404
23.88563983250556
22.76891885029091
21.74568340359909
20.8086108780322
19.95152084883548
19.16933660860141
18.45810012148743
17.81505610823779
17.23883295344503
16.72976809872072
16.29046020818184
15.92669275213069
15.64899058525507
15.4753005098801
15.43576121369245
15.58157181887651
16.00243934382576
16.86345441084334
18.49020276171089
21.27283022713785
25.20064911655141
30.38988354719265
37.37463170743435
46.19350143710794
56.17742565656804
65.49439144655229
70.1344628719758
65.52288141711331
53.30904849584675
39.5857578494101
27.94606820992845
19.26708445225267
13.36123298499628
9.538119024952636
7.042438095569108
5.335228454986273
4.116411481098227
3.244495037767575
2.649799700899869
2.273328350519847
2.048772844184469
1.91518280287165
1.82980409657315
1.768893928705446
1.721453305627111
1.682928755683803
1.651517012551601
1.627630275696454
1.624725823496759
1.819344345727462
3.00417077633381
5.657795508035999
9.151510880717485
13.46599968886397
20.33422233913971
41.73579870479976
1196166.289475078
224090.8677194128
78801.07386829908
37809.05266530292
21553.69057850668
13657.61967633496
9282.714592480932
6628.391757241295
4908.94953901528
3739.375737748712
2913.560563410182
2313.149508641096
1866.14279952823
1526.548421423593
1263.75195621095
1056.710201467191
890.6740208307349
755.2596685162297
643.21161832079
549.5039070376083
470.6337316731527
404.0773514381201
347.9075162311719
300.5547174197097
260.678092085436
227.1083704141625
198.8266179380031
174.954365889741
154.7446535881839
137.5707201748814
122.9123626963148
110.3412251290592
99.50634448632503
90.12087709003228
81.95047625419578
74.80344865692196
68.52260587195568
62.97862218949341
58.06467382000929
53.69213800143794
49.7871528737322
46.28786834585873
43.1422477252116
40.30630667828625
37.74269898819497
35.41957739942886
33.30967313636511
31.38954949022815
29.6389950602227
28.04052919070217
26.57899845416424
25.24124757907543
24.01585226508027
22.89290448660033
21.86384375858741
20.92133057301713
20.05916116014099
19.27222627361716
18.55652149140482
17.90922361259434
17.32885888409013
16.81560726271974
16.3718187094406
16.00287436606864
15.71863117185086
15.5358938214788
15.48277751387115
15.60673445780679
15.99013026638428
16.78257384026428
18.27380600073954
20.87971406371329
24.65747966367427
29.59144992128993
36.22721951183971
44.7025973093678
54.4333762392307
63.82654269037905
69.2558441213546
65.8935512392908
54.35432116941373
40.63877601888066
28.77769291976362
19.8465352941653
13.72562311474733
9.754399736904874
7.169951708753914
5.412992236222141
4.165925274546669
3.276169905417254
2.668997678220747
2.283986321540134
2.05422536248577
1.917857780279765
1.83113392318407
1.769578929460997
1.721792475056776
1.683046767415942
1.651470100404239
1.627439193288476
1.624306720108937
1.818150695561671
3.001463279448736
5.653680092486794
9.147115857711515
13.46108978049167
20.32345427950547
41.69555530021089
1192565.561990122
223096.6239356676
78398.25343425391
37602.36441252747
21431.58785378037
13578.84093579816
9228.915974734467
6590.290673436122
4881.375749797297
3719.222595572952
2898.83466736873
2302.488363097006
1858.552917332447
1521.258990539898
1260.137246685908
1054.257080407727
888.9768695177245
754.0241007982539
642.2506091663058
548.7193671772255
469.9877363040981
403.5623410824555
347.5234167378664
300.2972974003653
260.5372378814093
227.0700051064705
198.8746315608354
175.0722765240344
154.9169038432035
137.7834771799108
123.1538653702237
110.6018101242626
99.77828354893018
90.39812654996339
82.22840355284679
75.07857208267536
68.79236447798436
63.24118135031861
58.31876561229241
53.93693272337011
50.0221570381478
46.51284444227102
43.35715157301819
40.5112387641438
37.93786682469549
35.60526651942892
33.48622475919159
31.55734353652298
29.79843714368802
28.19204068908498
26.72300885030066
25.37818849887033
24.14615265493908
23.01698641901796
21.98211833232409
21.03419329629426
20.16698601088395
19.37535729767462
18.65526020750639
18.00380947917824
17.41943833107448
16.90218369642475
16.45417031002478
16.08041606477359
15.79017696824108
15.59923451278841
15.53390061102081
15.63830991480687
15.98837784690395
16.72022285518116
18.09244457470348
20.53098342417396
24.16077487455305
28.87077948481695
35.18347530285723
43.32687358014026
52.79869845352531
62.19583769413961
68.27367271581032
66.11156601271792
55.3180369748494
41.66030015181131
29.59573584976204
20.42218955658048
14.09034354261591
9.971509929103647
7.297714879527866
5.490453853261934
4.214939538849923
3.307430624574969
2.687947944710813
2.294518026634208
2.059611232501353
1.920489529290167
1.832430424866517
1.770237284397396
1.72211093576824
1.683149293829944
1.651412088638738
1.627241093718772
1.623888348852549
1.817005813619662
2.998983919335108
5.649963299323434
9.143110330073524
13.4565325535652
20.31280826687377
41.65566927506023
1189183.157650489
222163.9916940625
78020.66709609017
37408.72322703648
21317.25984931188
13505.14437308029
9178.661696947824
6554.783433872104
4855.772847325589
3700.612486212725
2885.345478521108
2292.83525970812
1851.792689763216
1516.653967485623
1257.084937776912
1052.262916582424
887.6520735707874
753.0897916433549
641.5325354673702
548.1281873706138
469.4906830071567
403.155869401331
347.2132653429804
300.0873799665219
260.4255377735665
227.048666635516
198.9318484638934
175.194459232189
155.0904116383263
137.9957287993144
123.3939027458924
110.8604736189351
100.0481513648518
90.67333345587359
82.50441372354373
75.35194956652879
69.06056327814655
63.50236397842446
58.57165172965886
54.18067578901375
50.25624538956258
46.7370228588185
43.5713595818516
40.715562438437
38.13250130213174
35.79048699049441
33.66236410034188
31.72477513197656
29.95756172984862
28.34327629323759
26.86678306550148
25.51493247685529
24.27629627515586
23.14095413756513
22.10032520359061
21.14704058591881
20.27485565415548
19.47860415166577
18.7542005169834
18.09870306257561
17.51046041602012
16.98937956653954
16.53738094396846
16.15915371840002
15.86341190729416
15.66501844968461
15.58867685760886
15.67558975136831
15.99604844902969
16.67466418644656
17.94459676797858
20.22587444587015
23.70398562190104
28.21830254523855
34.23254683899657
42.05444533937481
51.27214686305437
60.61888271053933
67.21323073474369
66.18386187094634
56.19660297233225
42.64868799725989
30.39911603683444
20.99287098480141
14.45461354015104
10.18904394136283
7.425551510418583
5.567546157271573
4.263423895131011
3.338255851036017
2.706633889727686
2.304912560748279
2.064924755076431
1.92307575562339
1.833692975564578
1.770868983099623
1.722408833020103
1.683236484365762
1.651343090255351
1.627036028216615
1.623470554790726
1.815908360984866
2.996727555362038
5.646636621114698
9.139488159459471
13.4523333985006
20.30227318330734
41.61614088731545
1186011.58352002
221290.6643468636
77667.33056386356
37227.60540354707
21210.38491126005
13436.31112958851
9131.790241378392
6521.742013335786
4832.032297692
3683.447277633195
2872.998793589978
2284.095000549461
1845.762083517395
1512.625695460716
1254.478205444123
1050.601746109288
886.5664566668911
752.3203838411803
640.9239770463049
547.6075349818414
469.0380178185054
402.7769173206915
346.9200566330117
299.8879190331919
260.3203918370451
227.0315796863297
198.9919882557426
175.3188183712094
155.2656884745983
138.209531653279
123.6353724276252
111.1204958013311
100.3193193692332
90.9497814818784
82.78159853864103
75.62642607009606
69.3297773157767
63.76447217072086
58.82537051966146
54.42515802263986
50.49098107016549
46.96176030561246
43.78604333028339
40.92028466242451
38.32746402238694
35.9759728127362
33.83871365971946
31.89236977875198
30.11681028726879
28.49460495092524
27.01062764956156
25.65173247638176
24.40649009070311
23.26497506177031
22.21859764317347
21.25997597245437
20.382847346369
19.58202035413644
18.8533737639009
18.19391398805916
17.60191211034912
17.07715632492173
16.62138075767065
16.23897565246903
15.93816387545319
15.73297985577024
15.64668582208715
15.71788135289165
16.01193032036512
16.64353883523309
17.82434354924037
19.95528471851553
23.27973061062446
27.62688514911049
33.36664573523352
40.8779487578342
49.84744910602719
59.10526955115932
66.09801492199354
66.11953079429193
56.98715452419314
43.60239422367833
31.18701419491595
21.55757992781773
14.81772572442749
10.4066241159699
7.553296136137918
5.644208074836423
4.311353231270813
3.3686286831597
2.72504199206189
2.315160801180158
2.07016112401087
1.925614587243631
1.834921163212551
1.771474141955926
1.722686397047521
1.683308548016322
1.651263260021866
1.626824076315655
1.623053195448472
1.814856891827623
2.994688311510998
5.643689900555931
9.13624099273243
13.44849328652815
20.29183209092777
41.57697258953806
1183038.951287544
220473.1576814145
77336.80158383805
37058.26984448235
21110.53115829724
13372.06984174752
9088.123146904292
6491.04575132413
4810.070957739662
3667.668458628804
2861.751855865523
2276.234118882085
1840.432194129331
1509.146624933095
1252.289162172422
1049.245083812
885.6917948269579
751.689383099335
640.4017262849139
547.1387432386783
468.6163383685513
402.417462428969
346.6407174664586
299.6999742812366
260.2259930270207
227.0250693945677
199.0626288816453
175.4534852939252
155.4509077876199
138.4327569077603
123.8856328251248
111.3886113964276
100.5978571867013
91.23287934077102
83.06473773247515
75.90619949940638
69.6036765705481
64.03070323845257
59.08269998619
54.67278778514741
50.72844796713174
47.18885665171208
44.00275455020425
41.12674066869852
38.52390152175536
36.16270622252899
34.01611276851957
32.06084266015549
30.27679028410642
28.64654078894231
27.15497593023539
25.78895192444953
24.53703704040424
23.3892997051891
22.33714057277345
21.37316449017636
20.49109088672504
19.6857041149824
18.95284920063333
18.28948407912822
17.69380800914646
17.16549975961442
16.70612252503221
16.31979320207013
16.01428708321251
15.8028867865752
15.70755417529437
15.76455977444866
16.03491451299618
16.62475337497353
17.72775498602821
19.71672012042405
22.88561828485019
27.0884075001534
32.57765119009466
39.79005728244298
48.51722062469619
57.66053245802651
64.94957155412004
65.92938496870653
57.68757989688719
44.51988037442778
31.95878288659424
22.11545285618656
15.17902519495613
10.62388940493199
7.680786853602468
5.72037980625436
4.358704328502375
3.398534376345887
2.743160415936068
2.325254625426057
2.075316018249451
1.928104360780597
1.836114667870072
1.77205292627814
1.722943889262309
1.683365715110058
1.65117276745558
1.626605328188442
1.622636139352162
1.813849977498346
2.992860254591634
5.641112708445678
9.133359995979443
13.44501008930548
20.28146376716921
41.53816716521618
1180258.878115626
219709.5071039284
77028.22620594279
36900.24419598119
21017.38976486319
13312.1910290412
9047.470743152004
6462.523332158985
4789.723064802286
3653.107932672187
2851.429739938077
2269.06924944614
1835.612352597073
1506.022558299037
1250.326123064981
1048.011184350735
884.8637088097312
751.0557098558743
639.8513568484714
546.6344696100349
468.1632782158795
402.0363106106305
346.3506886941479
299.5111610070775
260.1382662239046
227.0303237341661
199.1479969398713
175.6042052207412
155.6523580033149
138.6716511075269
124.1505671651873
111.6701875850023
100.8885655237507
91.52686904314766
83.35755260270224
76.19452154673652
69.88509755870271
64.3035309451359
59.34579900653793
54.92545142067024
50.97029664106356
47.41975819443193
44.22276211522129
41.33604468121134
38.72279266578978
36.3515470715616
34.19531613384927
32.23085514814372
30.43807986684404
28.79958744846526
27.30026462685436
25.92696728556751
24.66825925114591
23.51420114950931
22.45618277260678
21.48679485134457
20.59973863592149
19.78977459312355
19.05271527383748
18.38547274132069
17.78617907471867
17.25441148924042
16.7915753859291
16.4015363230198
16.09165948072393
15.8745410810765
15.77096093329049
15.81508464342366
16.06402145056568
16.6163184882065
17.65005157084294
19.50665776023896
22.52188966419932
26.59580218938057
31.85714376961934
38.78488263670294
47.27405429495673
56.28496268755075
63.78538448895002
65.62575409610314
58.29666591277194
45.39970740380367
32.71400807306288
22.66583137341349
15.53796063164221
10.84052699990688
7.807884042515718
5.796013745549372
4.405462480487246
3.427964518270245
2.760981608377941
2.335188431994997
2.08038643218881
1.930544060608352
1.837273503309985
1.772605696838353
1.72318170013964
1.683408306110419
1.651071845536325
1.626379916874521
1.622219271490712
1.812886041243826
2.99123668164646
5.638893551847908
9.130835328279762
13.44187691368402
20.2711391883423
41.49972888206202
1177660.223390606
218996.4577212459
76740.21904568281
36752.76528771291
20930.45741817197
13256.29637222577
9009.521553238075
6435.903542011228
4770.74636408589
3639.549421515325
2841.844004724213
2262.444330458902
1831.184432888304
1503.178342239322
1248.559945042234
1046.916665783127
884.1403321276342
750.5109968177355
639.3874593044138
546.2210486366266
467.8068213162304
401.7553189678061
346.1606707247125
299.4185279312279
260.140071089277
227.1167599974097
199.3055066288191
175.8180888622024
155.9085349277268
138.9576288557226
124.4558292180122
111.986216577799
101.2086711699754
91.84593334464431
83.67175872443357
76.50110078270781
70.18210919999767
64.58967868179381
59.62028195997704
55.18784554041665
51.22046147294697
47.65776431703993
44.44883507823069
41.55052195055888
38.92609074982466
36.54413655652511
34.37770284917191
32.40356604771258
30.60165253874126
28.9545623872115
27.44717958241775
26.06635313608092
24.80063693499606
23.6400792334806
22.57605524797908
21.6011387001035
20.70901060362658
19.89440638926296
19.15310606117018
18.48197714083906
17.87908783412631
17.34392009225479
16.87773255635589
16.48415834618523
16.17018495628004
15.94777874094135
15.83663857227831
15.86901225157995
16.09846817803535
16.61669620150531
17.58774370534989
19.32318764098296
22.19008548591679
26.14216206041062
31.19722220638239
37.85657122160634
46.1104336163074
54.97863477723978
62.62062676293381
65.22167760424708
58.81417472776274
46.24042271876028
33.45236254011915
23.20817241014148
15.89403347170856
11.05624374228444
7.934454044897763
5.871064683064354
4.451615306956478
3.456913157117471
2.778500037344338
2.344957926288909
2.085370056624123
1.932932998292061
1.838397834901072
1.773132893174483
1.723400267739805
1.683436672992993
1.650960748540582
1.626147989992828
1.621802485341489
1.811963453616896
2.989810818874172
5.637021449315982
9.128657018719739
13.43907994525767
20.26081555372698
41.46166949355757
1175178.482130079
218316.2428371161
76465.65461719305
36612.25134976617
20847.69147047844
13203.14016245077
8973.496691966999
6410.707112732175
4752.867728082698
3626.869231745042
2832.98328058132
2256.434046950776
1827.288967543967
1500.803485643231
1247.213964810022
1046.20439917863
883.7704235219927
750.2973696794451
639.2351204406335
546.0992205754666
467.7195850208737
401.7184420317978
346.1878292443655
299.5157427825179
260.3054063565203
227.3424589183955
199.5806514619618
176.1308205924598
156.2475383725414
139.3129409359801
124.819153923761
112.3509335121886
101.56968194233
92.19944085770562
84.0150350146137
76.83227188312793
70.49996900334827
64.89353455387116
59.90983016691052
55.46307264779922
51.48156739103433
47.90510288161176
44.68286858540298
41.77178663819424
39.13517081366003
36.74164475036266
34.56426615316214
32.57981521432185
30.76821457908942
29.11205527309605
27.59620858862602
26.20750835458173
24.9344915687737
23.76718831665355
22.696954435822
21.71634273403223
20.81901094663182
19.9996673333062
19.25405826379228
18.57900697014691
17.97251990492858
17.43398866009674
16.96453440375212
16.56757430461111
16.24974694573227
16.02243931601245
15.90435967140086
15.92600390989866
16.1377131444695
16.6249214745608
17.53873412164945
19.16154986906849
21.8844188075211
25.72325851396275
30.59376315308629
36.99989015037976
45.02000204121399
53.74396074465244
61.46981514626187
64.7312006668059
59.24049082667062
47.03957140804199
34.17245558946306
23.74114334010422
16.24619399717223
11.27039996816559
8.060153802473975
5.94535973319723
4.497070854276988
3.485324260853182
2.795679441304669
2.354541093670639
2.090255012445149
1.935265434926225
1.839485032374108
1.773633246573904
1.723598885697306
1.683450363810163
1.650839162919727
1.625909321415354
1.621385619215194
1.811082606224906
2.988585179912774
5.635499152945192
9.126824975650214
13.43660263580644
20.25043776402121
41.42401288839643
1172836.282974229
217674.9310805609
76206.958157214
36479.95029163251
20769.84749810831
13153.23558403104
8939.775424820666
6387.231531710518
4736.328888206772
3615.265895928066
2825.007925106894
2251.161479625654
1824.010802378873
1498.943534770088
1246.294619802294
1045.844023128541
883.6914878066117
750.3268704645046
639.2888130387721
546.1539949138063
467.7844496763539
401.8122784849061
346.3265297925583
299.7072536011128
260.5497013981727
227.6337237752196
199.909883407568
176.4879652120184
156.6229105703006
139.6980002550424
125.2068135714566
112.7355812232652
101.9470482779427
92.56640391058126
84.36941328911057
77.1726319666864
70.82545919529151
65.20374703461496
60.20469009520288
55.74275067053094
51.74641167445656
48.15558691994352
44.91955153374168
41.99528345287538
39.34612999091089
36.9407319231969
34.75215215166727
32.75716752958726
30.9356913874003
29.2703013674769
27.74585270397202
26.34916147290603
25.06874585590196
23.89461637429708
22.81810855566006
21.83175379228136
20.92918648566651
20.10508818801101
19.35517277832903
18.67622131268517
18.0661820792669
17.52436223982134
17.05175525185871
16.65157854996361
16.33014920501748
16.09832222584278
15.97389965548399
15.98578132738982
16.18138130018996
16.64048533933529
17.50255768856454
19.02384950892877
21.60686485651706
25.33315598022494
30.04109860298204
36.20994348807101
43.99819055400182
52.58083710567591
60.3447125402726
64.1685115184667
59.57739149140632
47.79527941324802
34.87342111785199
24.26385030780801
16.59365430205649
11.48249838984088
8.184718289468947
6.018772409864593
4.541767605056176
3.513162368555125
2.812496746042279
2.36392359901905
2.095033527232519
1.937537768965402
1.840533643493718
1.774106214194015
1.723777339414601
1.683449274612468
1.650707021845593
1.625663848835297
1.620968546618865
1.810243172613152
2.98755922014869
5.63432562679299
9.12533466767184
13.43443991977241
20.23991631023575
41.38677506594122
1170642.115205611
217074.7083026716
75964.9481242387
36356.22874319256
20697.09154345375
13106.64003013182
8908.347372356464
6365.419874505828
4721.039029492772
3604.623227435863
2817.782923662825
2246.478346543942
1821.193482580795
1497.438720649443
1245.643473200583
1045.682694238665
883.7598799948439
750.4677528364332
639.4303597337596
546.2814205413956
467.9114708672431
401.9600071798404
346.5117732817104
299.9383943561391
260.8271240489002
227.9521609414739
200.2610135273459
176.8624837277836
157.0118802240905
140.0935745483649
125.6025170974762
113.1263203436679
102.3289814154341
92.93675488196259
84.72627556381575
77.51478812315705
71.1522254827823
65.514845131206
60.5001442231221
56.02280671159542
52.01147451121019
48.40617247240239
45.15625043135245
42.21873379709963
39.55699715094587
37.13969373277206
34.93988823636428
32.93435175707138
31.1029866771499
29.42835624633949
27.89529913470474
26.49061356356666
25.20279912767271
24.02184729053598
22.93907401547781
21.9469902575503
21.0392083151576
20.21038459392114
19.45620252381465
18.77340378353586
18.15988252209411
17.61486752474531
17.13923399384254
16.73601489653695
16.41123121825677
16.17524972549554
16.04504428293345
16.04806412694625
16.22908273105093
16.66284329181609
17.47857945674113
18.91015493879092
21.35808780031398
24.96765115459343
29.53395348324277
35.48178323956868
43.04322664681361
51.48553971020243
59.25214714134886
63.54726434385292
59.82793427383438
48.50617133124279
35.55478652781731
24.77575068218613
16.93584119025333
11.69215845214819
8.307945145751436
6.091212022345957
4.585666681014441
3.54040704888066
2.828938462333362
2.373096687119475
2.09970080238228
1.939747925168795
1.841543036853535
1.774551746032197
1.723935742331422
1.683433531171087
1.650564420417275
1.625411617217156
1.620551164198567
1.809444284556083
2.986729603471747
5.633494858303647
9.124155009299635
13.43230281202415
20.2291086951893
41.34998923680378
1168589.711628302
216513.7566874813
75738.87537814764
36240.70006220255
20629.19506319485
13063.20735065195
8879.11626049706
6345.210782976736
4706.964777841948
3594.932750483177
2811.323339245876
2242.422314979808
1818.895898810501
1496.366761140005
1245.35335305392
1045.823325140142
884.0826577175521
750.825143152484
639.7576887097345
546.5685141574326
468.1748712032009
402.2228195781683
346.7926645054785
300.2477864149121
261.1676377366184
228.3208320981983
200.6517355167971
177.26796044386
157.4249130750923
140.5077698263507
126.0125816922473
113.5281044486425
102.7193866184534
93.31358463128495
85.088072607334
77.86068199380146
71.48179990705934
65.82802796334366
60.797118821235
56.30394208299997
52.27727113238925
48.65722081683136
45.39319958337691
42.44226797251989
39.76781834140097
37.33850907442736
35.12740098617423
33.11125501149187
31.26995915394412
29.58605960846117
28.04437642744214
26.63168842695541
25.33647548959821
24.14870927443628
23.0596857892849
22.06189551411189
21.14892899153745
20.31541827855468
19.55701773778523
18.87043186750659
18.25350409714639
17.70539017693904
17.22685553643273
16.82076245172444
16.49285880332552
16.25306266116069
16.11759033682439
16.11257253614207
16.28040408410341
16.69134694350195
17.46573762187716
18.8186712925414
21.13716378370433
24.62557265271721
29.06784492815833
34.81054308144159
42.15213025196709
50.45423487377843
58.19653136064117
62.87999146556767
59.99510925514655
49.17117048628403
36.21615178194374
25.27640733145081
17.27224019327618
11.89902378722994
8.42964076625185
6.162591155597966
4.628731314177622
3.567039769116811
2.844992598470116
2.382052552743788
2.104252538844633
1.941894059441001
1.842512685446478
1.774969844653493
1.724074238895783
1.683403279404315
1.650411467157931
1.625152680545845
1.620133374074934
1.808685036620611
2.986092723223674
5.633000168221327
9.123289839439929
13.43016168079646
20.21687372893659
41.31373278529262
1166661.698615132
215987.2769095781
75526.8379248108
36132.43956289736
20565.66605803319
13022.6745492359
8851.955469471965
6326.564584129622
4694.123114149393
3586.247171354433
2805.701691608585
2239.073027187721
1817.194765760643
1495.794019092581
1245.475588391687
1046.30017754026
884.6772331806208
751.4015067529838
640.2612954957233
546.9972540099458
468.5514945038556
402.5753265518758
347.1437829783293
300.611445552518
261.5495251081827
228.7206367389787
201.0655942122377
177.6904247033119
157.8502681180974
140.9307877619755
126.4288687125962
113.9341942222948
103.1126939922055
93.69229472143725
85.45100970799348
78.20718190588497
71.81159661493778
66.14115824066803
61.09384464957089
56.58468904378741
52.54258033975523
48.90771194109855
45.62954276536579
42.66516274393337
39.97797801955092
37.53664938851781
35.31423196536567
33.28747535714738
31.4362524904695
29.74309213658017
28.19279559787176
26.77212231940308
25.46953262915417
24.27497863829029
23.17973675155879
22.17627744506166
21.25817014583583
20.42002346692842
19.6574640265198
18.96716113307491
18.34691055727747
17.79579980880062
17.31449219056822
16.90569173019117
16.57489393630983
16.33160372890518
16.19134298086871
16.17904092368858
16.3349432043741
16.72531367991902
17.46270654803559
18.74632631371835
20.94179664637102
24.30549794301847
28.6387736124382
34.19186768368068
41.32128847028627
49.48341648110982
57.18067194237709
62.17815149231615
60.08234517267667
49.78912796974095
36.85684337344293
25.76519890780061
17.60219847057511
12.10264106165435
8.549548877593093
6.232782713023686
4.67089993265864
3.593026642587555
2.860637841674434
2.390777995076718
2.108681493534001
1.943972761639736
1.843441194467561
1.775359985459726
1.724192623045622
1.683358420268079
1.650248098160751
1.62488697987148
1.61971506550018
1.807965182964816
2.985647813900255
5.632838658370799
9.122741203356719
13.42816908513907
20.20417806871852
41.27785738751648
1164876.520358096
215500.1576889815
75330.71805047794
36032.33985308668
20506.96675421172
12985.27822172578
8826.966241389217
6309.492674311771
4682.461191218015
3578.465457566845
2800.780108324229
2236.26483247009
1815.904739669676
1495.523179968503
1245.808371602423
1046.913932446606
885.35282168579
752.0193046815033
640.7800625252132
547.4246032983873
468.9167234471876
402.9106457748715
347.4746056185535
300.9534475450511
261.9095611370361
229.0991832759789
201.4593056792255
178.0941679622463
158.258490310733
141.3383093131057
126.8312642022307
114.3279131343507
103.4950359781089
94.06131466460599
85.80539788256993
78.54614377469943
72.13474403433445
66.4484165152181
61.38537593509306
56.86083076829922
52.8037965703538
49.15455551445889
45.86262615780414
42.88513592623514
40.18551182934019
37.73242322559282
35.49892484846516
33.46175957700903
31.60078924779626
29.89852867534615
28.33976344388328
26.91123629715207
25.60139038076939
24.40016039396301
23.29880510203733
22.28977683665991
21.36662575207604
20.52393895618818
19.7573175198062
19.06339825852477
18.43993285409958
17.88594562284606
17.40200527324906
16.99066933607108
16.65720000632565
16.41072111172359
16.2661160821175
16.24721466249907
16.39230834641696
16.76405790720871
17.46808965154288
18.6896866261067
20.76925837534437
24.00722589201341
28.24276960890687
33.62142835127862
40.5465415860188
48.56896287455142
56.20532134831164
61.45183779743063
60.09434607659904
50.3596320163303
37.47702872420274
26.24227891130782
17.92559829359035
12.30287787811501
8.667597315900105
6.301767213654993
4.712177230354619
3.618376040555429
2.87587933785573
2.399275280793145
2.112988777556338
1.945984956602196
1.844329499634989
1.775723028007991
1.724291599335624
1.683299488443599
1.650074695103465
1.624614750565897
1.619296187020046
1.807283025677307
2.985387429951334
5.63299784907456
9.122495577401857
13.42631498750642
20.19134394770452
41.24238076195608
1163211.330457733
215046.1223380636
75148.00647771471
35939.13883026577
20452.37184681307
12950.56977393978
8803.863900627575
6293.820030112251
4671.885627863687
3571.560284550638
2796.587405295855
2234.074725483071
1815.142842444258
1495.701918653362
1246.519277145912
1047.84055657582
886.2827458711189
752.8400659350866
641.4575466354268
547.9732699205761
469.3723919420066
403.3116499203547
347.8519131012808
301.3275379885095
262.2912344326293
229.4920006986787
201.8622302012562
178.503728921282
158.6702929542092
141.7479577646889
127.2348498531754
114.7222185467924
103.8775710046452
94.43026453482615
86.15953265106553
78.88471755331359
72.45739872762609
66.75509673098503
61.67625717209239
57.13626064887614
53.06424779759745
49.40058884656425
46.09486169181716
43.10423112800012
40.39214495875073