/*--------------------------------*- C++ -*----------------------------------*\
| =========                 |                                                 |
| \\      /  F ield         | OpenFOAM: The Open Source CFD Toolbox           |
|  \\    /   O peration     | Version:  v1812                                 |
|   \\  /    A nd           | Web:      www.OpenFOAM.com                      |
|    \\/     M anipulation  |                                                 |
\*---------------------------------------------------------------------------*/
FoamFile
{
    version     2.0;
    format      ascii;
    class       volScalarField;
    location    "1000";
    object      p;
}
// * * * * * * * * * * * * * * * * * * * * * * * * * * * * * * * * * * * * * //

dimensions      [0 2 -2 0 0 0 0];


internalField   nonuniform List<scalar> 
11031
(
-0.1674809326455621
-0.1675016722307744
-0.1675240536780004
-0.1675481507350419
-0.1675740277520292
-0.1676017362197595
-0.1676313108047058
-0.1676627648276466
-0.1676960851959755
-0.1677312267556804
-0.1677681058542418
-0.1678065923821576
-0.1678464982659284
-0.1678875573343341
-0.1679293841205366
-0.1679713814864821
-0.1680125329097594
-0.1680509784855942
-0.1680831844816639
-0.1681014374614364
-0.1680861884159311
-0.1680111769985039
-0.167860846961002
-0.1676106867609999
-0.1672186599581659
-0.166714425010922
-0.1660919130290205
-0.1652185775905027
-0.1636821098104218
-0.1620884209907471
-0.1615415444310261
-0.1616973760787387
-0.1619967150534176
-0.1622120026320324
-0.1623475138728926
-0.1623240214738632
-0.1620487771998912
-0.1614781078849264
-0.160590732301654
-0.1593804323838811
-0.1578190495506347
-0.1558787120769641
-0.153523711427986
-0.1507875184993948
-0.1476651950757386
-0.1442602214710771
-0.1405361178681541
-0.1366978096018053
-0.132618210504655
-0.1286805834436658
-0.1245526879546985
-0.120925556100909
-0.1170312194948527
-0.1141422379614197
-0.1105923626417828
-0.1092432760751293
-0.106531968712763
-0.1118300471922127
-0.1675607670106413
-0.1675792432718531
-0.1675992800170198
-0.1676209711235185
-0.1676444070934318
-0.1676696724985875
-0.1676968429414857
-0.167725981536919
-0.1677571348504443
-0.1677903282874149
-0.1678255609127514
-0.1678627996274141
-0.167901972436578
-0.1679429600411275
-0.1679855837541022
-0.1680295848953964
-0.1680745840843618
-0.1681199925316125
-0.1681648141262049
-0.1682072400062949
-0.1682438884497453
-0.1682677549634187
-0.1682604079196585
-0.1681940019723794
-0.1680528911604472
-0.1678140764021823
-0.1674294780287973
-0.1669525115304896
-0.1663605575067412
-0.1655197164883338
-0.1640741475513962
-0.1623848066330678
-0.1616673894401944
-0.1617002633129675
-0.1619191813683781
-0.1620715447693315
-0.162148829578385
-0.1620738185259729
-0.1617490452160173
-0.1611313907960334
-0.1602017931609502
-0.1589570292948171
-0.1573708597594761
-0.155415117357059
-0.1530520137599135
-0.1503142147321158
-0.1471955081862386
-0.1437997603264274
-0.1400883588675324
-0.1362673628221193
-0.1322063690386837
-0.1282916220003555
-0.1241853818660508
-0.1205849256645369
-0.1167118664352231
-0.1138509385970465
-0.1103132457191787
-0.1089875434361167
-0.1062550838238891
-0.1114135980389069
-0.1676433956651905
-0.1676596409343293
-0.1676773131266623
-0.1676965137454316
-0.1677173455188369
-0.1677399107619515
-0.1677643092836644
-0.1677906358629711
-0.1678189772127312
-0.1678494083918316
-0.1678819886339962
-0.1679167565719414
-0.167953724815656
-0.1679928737928503
-0.1680341445647961
-0.1680774298363924
-0.1681225611951437
-0.1681692879227087
-0.1682172364854791
-0.1682658248661858
-0.168314074645727
-0.1683602262063675
-0.1684010203273759
-0.1684298770434907
-0.1684294633955796
-0.1683712587598766
-0.1682386068107092
-0.1680101356376857
-0.1676370417895469
-0.1671799865139876
-0.1666158190443597
-0.1658075058161353
-0.1644498958102758
-0.1626954739975404
-0.1618123266439757
-0.1617229240501566
-0.1618577945554255
-0.1619449413809698
-0.16196237018769
-0.161834749532261
-0.1614594894356349
-0.160793613166729
-0.1598202932380962
-0.1585392899741893
-0.1569264622960594
-0.1549535967899359
-0.15258091779731
-0.1498403002635165
-0.1467242272393772
-0.1433369737802438
-0.1396377621786393
-0.1358337796305182
-0.1317912656384488
-0.1278993931343825
-0.1238149427722707
-0.1202412667607327
-0.1163897500772953
-0.1135568729841607
-0.1100317766008642
-0.1087292438187664
-0.105975870616537
-0.1110030931189441
-0.1675972759681043
-0.1675971048575382
-0.167596927201688
-0.1675967595173373
-0.1675965965856314
-0.167596436502308
-0.1675962809332534
-0.1675961327412449
-0.1675959955844286
-0.1675958742773408
-0.167595775162259
-0.167595706412611
-0.1675956783018881
-0.1675957034076629
-0.1675957967005715
-0.1675959754216473
-0.1675962586838675
-0.1675966667767586
-0.1675972202612069
-0.16759793904863
-0.1675988416540471
-0.1675999447890348
-0.1676012633686505
-0.1676028109140093
-0.1676046002488063
-0.1676066443481323
-0.1676089571746776
-0.1676115543829384
-0.1676144538463912
-0.1676176760342049
-0.1676212442850664
-0.167625185020476
-0.1676295279319028
-0.1676343061637926
-0.1676395565032303
-0.1676453195845617
-0.1676516401068806
-0.1676585670628103
-0.1676661539733105
-0.1676744591195496
-0.1676835457643976
-0.1676934823488341
-0.1677043426490184
-0.1677162058773544
-0.1677291567011561
-0.1677432851549079
-0.1677586864223142
-0.1677754604366889
-0.1677937112698955
-0.1678135462564198
-0.1678350747995661
-0.1678584068092325
-0.1678836507043484
-0.1679109109242139
-0.1679402848889215
-0.1679718593639616
-0.1680057061815533
-0.1680418772870217
-0.1680803990553288
-0.1681212657635477
-0.1681644319074809
-0.1682098025557898
-0.1682572197851809
-0.1683064406549594
-0.1683570963332192
-0.1684086082453336
-0.1684600080190919
-0.1685095688488773
-0.1685541079382407
-0.1685873087904109
-0.1685931135499864
-0.1685430038957197
-0.1684180255817917
-0.1681985178862314
-0.1678395132191123
-0.1673934285838144
-0.1668587126684582
-0.1660896789794142
-0.1648066155797767
-0.1630158884061753
-0.1619728377391202
-0.1617628787099914
-0.1618114662153212
-0.1618313108932277
-0.1617872913382916
-0.1616059593858453
-0.161179370468306
-0.1604641847282949
-0.1594457959777631
-0.1581269201438914
-0.1564856687172361
-0.1544940326567295
-0.1521103577597965
-0.1493657507021144
-0.1462513594777884
-0.142871889577002
-0.1391843686367543
-0.1353971056772055
-0.1313729483074364
-0.1275039408116032
-0.1234414120036614
-0.1198946124226278
-0.116064899238051
-0.1132600633676002
-0.1097479805264411
-0.1084684428825322
-0.1056944453906081
-0.1105968826358355
-0.1677098357496753
-0.1677096697846297
-0.1677094972800435
-0.1677093346983651
-0.1677091771919454
-0.1677090230679673
-0.1677088741353596
-0.1677087334250254
-0.1677086048009359
-0.1677084933178346
-0.167708405590885
-0.1677083500878842
-0.1677083373850755
-0.1677083803504431
-0.1677084942005213
-0.1677086963538962
-0.1677090060041993
-0.1677094434094951
-0.1677100289900052
-0.1677107824129321
-0.1677117218535489
-0.1677128636077904
-0.167714222160368
-0.1677158106961783
-0.1677176418924716
-0.1677197287885521
-0.1677220855858938
-0.1677247283088245
-0.1677276753048965
-0.1677309476075207
-0.1677345692018803
-0.1677385672380908
-0.1677429722238583
-0.1677478182187601
-0.1677531430394224
-0.1677589884826639
-0.1677654005650524
-0.1677724297769931
-0.1677801313451538
-0.167788565496063
-0.1677977977102784
-0.1678078989561279
-0.1678189458860051
-0.1678310209782079
-0.1678442125998212
-0.1678586149653803
-0.1678743279571455
-0.1678914567709991
-0.1679101113430119
-0.1679304055093172
-0.1679524558444587
-0.1679763801219877
-0.1680022953361515
-0.1680303152267202
-0.1680605472445243
-0.1680930889058455
-0.1681280234784669
-0.1681654149430853
-0.1682053021498729
-0.1682476920123913
-0.16829255138378
-0.1683397967614274
-0.1683892798397884
-0.1684407644227021
-0.1684938846470482
-0.168548061721047
-0.1686023290562033
-0.1686549738820213
-0.1687028487519964
-0.168739821796329
-0.1687512471419076
-0.1687090716073162
-0.1685909101293856
-0.168378319789575
-0.1680312001380433
-0.1675861358086929
-0.1670915035647425
-0.1663746865171655
-0.1651454140283602
-0.1633445869078032
-0.1621486719238172
-0.1618195235322062
-0.1617801807344305
-0.1617304733614755
-0.1616232633777346
-0.1613869896344304
-0.1609082089068069
-0.1601426380948002
-0.159077882149124
-0.1577195846393953
-0.1560482274613784
-0.1540362398930655
-0.1516402028033569
-0.1488904800067037
-0.1457768541624534
-0.1424044816138273
-0.1387281703490195
-0.1349573432871173
-0.1309514278080345
-0.1271052772605227
-0.1230648052884687
-0.1195449752854195
-0.1157373257785106
-0.112960516395989
-0.1094618690551866
-0.1082051899292139
-0.1054108943663097
-0.1101945984149729
-0.1678222859603389
-0.1678221268584602
-0.1678219612389557
-0.1678218054224507
-0.1678216550129177
-0.1678215085597461
-0.1678213680153971
-0.1678212365700305
-0.167821118285003
-0.1678210184419913
-0.1678209439012306
-0.1678209033890618
-0.167820907730341
-0.1678209700100242
-0.1678211055988885
-0.1678213319743078
-0.167821668270048
-0.1678221345549399
-0.1678227509496358
-0.1678235367510116
-0.1678245097546014
-0.1678256859271354
-0.1678270795129308
-0.1678287035530107
-0.1678305706733473
-0.1678326939614604
-0.1678350877707713
-0.1678377683727713
-0.1678407544439519
-0.1678440674177732
-0.1678477317486557
-0.1678517751308526
-0.1678562287022798
-0.1678611272524578
-0.1678665094471471
-0.1678724180718953
-0.1678789002942383
-0.1678860079418286
-0.1678937977900099
-0.1679023318505682
-0.1679116776515012
-0.1679219084960713
-0.1679331036832947
-0.1679453486744505
-0.1679587351813458
-0.1679733611512523
-0.1679893306184584
-0.1680067533863926
-0.1680257444998569
-0.1680464234610985
-0.1680689131351551
-0.1680933382849169
-0.1681198236706556
-0.1681484916420232
-0.1681794591502456
-0.1682128341071797
-0.1682487110229099
-0.1682871658433831
-0.1683282498936436
-0.1683719827432941
-0.1684183436056214
-0.1684672603703372
-0.1685185942463278
-0.1685721155269039
-0.1686274606587486
-0.1686840488781243
-0.1687409108194617
-0.1687963374435802
-0.1688471999632007
-0.168887529525066
-0.1689040503286732
-0.1688693675332325
-0.1687571929409842
-0.1685500096496248
-0.1682135624728049
-0.1677621204920025
-0.1673094564732785
-0.1666551076803506
-0.1654664613716054
-0.1636792207144235
-0.1623397504416368
-0.1618922637809171
-0.1617637236599629
-0.1616420770344937
-0.161469870482828
-0.1611773646186226
-0.1606455297564763
-0.1598285153566809
-0.1587161350903681
-0.1573169465045812
-0.1556138908859064
-0.1535800458866553
-0.1511703394952594
-0.1484144213931963
-0.1453006808551242
-0.1419347445755709
-0.1382691798563389
-0.1345145143292235
-0.1305267325145086
-0.1267034306686708
-0.1226851514883293
-0.1191923799093552
-0.1154070532694408
-0.1126582522294395
-0.1091734618915545
-0.1079395346817258
-0.1051252965518933
-0.1097968608911995
-0.1679347903146728
-0.1679346398845479
-0.1679344830538459
-0.1679343358006373
-0.1679341942438839
-0.1679340572167208
-0.1679339268203134
-0.1679338064052963
-0.1679337002276947
-0.1679336137898496
-0.1679335541924829
-0.16793353040686
-0.1679335534947582
-0.1679336367440462
-0.1679337956728396
-0.1679340478225665
-0.1679344122871362
-0.1679349089872702
-0.1679355577928497
-0.1679363776714367
-0.1679373860414501
-0.167938598482621
-0.1679400288879428
-0.1679416900140873
-0.1679435942902788
-0.1679457546903585
-0.1679481855248426
-0.1679509030744946
-0.1679539260611299
-0.1679572759915154
-0.167960977421128
-0.1679650581779416
-0.1679695495776105
-0.1679744866489239
-0.1679799083785621
-0.1679858579795737
-0.1679923831837309
-0.1679995365539153
-0.1680073758106077
-0.1680159641647506
-0.1680253706473205
-0.1680356704213843
-0.1680469450608662
-0.1680592827756934
-0.168072778558991
-0.1680875342266636
-0.1681036583152612
-0.1681212657967101
-0.1681404775661281
-0.1681614196508588
-0.1681842220883281
-0.1682090174134288
-0.168235938701278
-0.1682651171023158
-0.1682966788137152
-0.1683307414186709
-0.1683674095253655
-0.1684067696062954
-0.1684488839024845
-0.1684937831492943
-0.1685414576632004
-0.168591845815326
-0.1686448178100666
-0.1687001502840683
-0.1687574821196484
-0.168816230659413
-0.1688754230041965
-0.1689333519811824
-0.1689869089735404
-0.1690302829354588
-0.1690513646103453
-0.1690235101300476
-0.1689167732154826
-0.1687144311807071
-0.1683900075848706
-0.167931725073564
-0.1675087701372405
-0.1669158145069791
-0.1657690099516446
-0.1640138701104777
-0.1625431172103323
-0.1619784635901768
-0.1617605759579397
-0.1615650038521739
-0.1613261886327642
-0.1609762457073718
-0.1603906113485151
-0.1595212325671045
-0.1583601016206331
-0.1569186809455172
-0.1551824469970568
-0.1531253240853356
-0.1507007036718262
-0.1479375578496591
-0.1448228587057611
-0.1414627217355026
-0.1378074557215406
-0.1340686832424892
-0.1300989284021393
-0.1262984622504046
-0.1223025063949754
-0.1188368733943919
-0.1150741254885621
-0.1123533140670356
-0.108882802381369
-0.1076715447722373
-0.1048377426241985
-0.1094041182757687
-0.1680440676627316
-0.1680439247112067
-0.1680437753886593
-0.1680436355287474
-0.1680435017336745
-0.1680433730870207
-0.1680432518282477
-0.1680431414593749
-0.16804304642205
-0.1680429724287693
-0.1680429268013695
-0.1680429187387666
-0.1680429595171843
-0.1680430626148605
-0.1680432436965432
-0.168043520392552
-0.1680439118137207
-0.1680444378156572
-0.1680451181204174
-0.1680459714723801
-0.1680470150119794
-0.1680482640233501
-0.1680497321280889
-0.1680514318796013
-0.1680533755935985
-0.1680555762294868
-0.1680580481755099
-0.1680608078726915
-0.1680638742792631
-0.1680672692121267
-0.1680710176135155
-0.1680751477817839
-0.1680796915974347
-0.1680846847583122
-0.1680901670365169
-0.1680961825568658
-0.1681027800982702
-0.1681100134116123
-0.1681179415498773
-0.1681266292012513
-0.1681361470146323
-0.168146571905433
-0.1681579873267063
-0.1681704834869696
-0.1681841574956825
-0.168199113409988
-0.1682154621560255
-0.1682333212910556
-0.1682528145683997
-0.1682740712587877
-0.1682972251750967
-0.1683224133365577
-0.1683497741998399
-0.1683794453733684
-0.1684115607257146
-0.1684462467917289
-0.1684836183783774
-0.1685237732598052
-0.1685667858185492
-0.1686126993884244
-0.1686615168278527
-0.1687131883230172
-0.1687675942995698
-0.1688245189518449
-0.168883604955533
-0.1689442693397956
-0.1690055373007247
-0.1690657058450999
-0.1691216926584748
-0.1691678275254818
-0.169192875350815
-0.1691710944849314
-0.1690696509162001
-0.1688718858616911
-0.1685591649317494
-0.1681005479656913
-0.1676922523882838
-0.1671510395247071
-0.1660561737020188
-0.1643430717303578
-0.1627558790035595
-0.1620752756527737
-0.1617689112112196
-0.161497966271058
-0.1611912218945893
-0.1607827723115862
-0.1601427132685203
-0.1592201880416492
-0.1580093133534743
-0.1565244516035645
-0.1547536783458617
-0.1526719483078
-0.1502312346536765
-0.1474598771962239
-0.1443434126287044
-0.1409884629739876
-0.1373430634664448
-0.1336199214409639
-0.1296680878218246
-0.1258904390088105
-0.1219169303317865
-0.1184785062880676
-0.1147385878494345
-0.1120457443579125
-0.1085899305079183
-0.1074012805564292
-0.1045483254858871
-0.1090162500322347
-0.1681543381539838
-0.1681542082163184
-0.1681540722900304
-0.1681539454314257
-0.1681538248892359
-0.1681537100958022
-0.1681536034247375
-0.1681535085001725
-0.1681534299119606
-0.1681533735346734
-0.1681533468590339
-0.1681533592458213
-0.1681534221233239
-0.1681535490965051
-0.1681537559150904
-0.1681540602242979
-0.1681544810464091
-0.1681550380098619
-0.1681557504574407
-0.1681566366104524
-0.1681577129794504
-0.1681589941658563
-0.1681604931190573
-0.1681622217761757
-0.1681641919193392
-0.1681664160599923
-0.1681689082144002
-0.168171684515727
-0.1681747636670036
-0.1681781672791835
-0.1681819201389445
-0.1681860504477184
-0.1681905900587113
-0.168195574729931
-0.168201044401343
-0.1682070434981879
-0.1682136212616507
-0.1682208321007114
-0.1682287359611915
-0.1682373987019423
-0.1682468924685924
-0.168257296049987
-0.1682686952022562
-0.168281182917368
-0.1682948596147741
-0.1683098332220822
-0.1683262191153311
-0.1683441398743253
-0.1683637248125006
-0.1683851092307517
-0.1684084333457464
-0.1684338408384497
-0.1684614769706034
-0.1684914862115058
-0.1685240093144629
-0.1685591797696305
-0.1685971195373105
-0.1686379339241083
-0.1686817054019621
-0.1687284860378892
-0.1687782879600815
-0.168831070772934
-0.1688867237415325
-0.1689450382877428
-0.1690056615969646
-0.169068012105403
-0.1691311157580047
-0.1691932783785743
-0.1692514533320122
-0.1693000935376848
-0.1693285362672741
-0.1693120672087166
-0.1692160136826972
-0.1690227700998017
-0.1687207008969167
-0.1682704282577955
-0.1678600444741841
-0.1673623743151317
-0.1663358569986199
-0.1646637052206704
-0.1629767321739796
-0.1621807613435723
-0.161787198451732
-0.1614398221557301
-0.1610641144521482
-0.1605962292088304
-0.1599011948259475
-0.1589248244900585
-0.1576633048575285
-0.1561339037113042
-0.1543273435393582
-0.1522197697004442
-0.1497618511606621
-0.1469813481819162
-0.14386234992817
-0.1405120022875734
-0.1368760545960307
-0.1331682882055165
-0.1292342727957433
-0.1254794192747991
-0.1215284764703418
-0.1181173232894381
-0.1144004800078463
-0.1117355770890281
-0.1082948724949349
-0.1071287853169374
-0.1042571333448395
-0.1086330978205586
-0.1682504151607186
-0.1682502986701363
-0.1682501767302553
-0.1682500634756086
-0.1682499569010714
-0.1682498569424608
-0.1682497662796699
-0.1682496888683714
-0.1682496297197388
-0.1682495952314961
-0.1682495935287778
-0.168249634743943
-0.1682497312218697
-0.1682498976294791
-0.1682501508876137
-0.168250509855519
-0.1682509947127711
-0.1682516260989896
-0.1682524241618568
-0.1682534077163483
-0.1682545936940264
-0.1682559970199016
-0.1682576309457849
-0.1682595077524183
-0.168261639638243
-0.1682640396094888
-0.1682667222452328
-0.1682697042864661
-0.1682730050677899
-0.1682766468313985
-0.1682806549735665
-0.1682850582616178
-0.168289889049831
-0.1682951835094079
-0.1683009818813893
-0.1683073287562939
-0.1683142733780269
-0.1683218699706653
-0.1683301780822707
-0.1683392629375989
-0.1683491957935034
-0.1683600542828923
-0.1683719227369534
-0.168384892466776
-0.1683990619886459
-0.1684145371668874
-0.1684314312509582
-0.1684498647724994
-0.1684699652663085
-0.1684918667675852
-0.1685157090325307
-0.1685416364109675
-0.1685697962951551
-0.1686003370462191
-0.1686334052934314
-0.1686691424876605
-0.168707680581463
-0.1687491366859893
-0.1687936065124357
-0.1688411562950839
-0.1688918126375519
-0.1689455492016994
-0.1690022680484623
-0.1690617711910829
-0.1691237133342615
-0.1691875172494035
-0.1692522127013884
-0.1693161185264523
-0.1693762315989171
-0.1694271210505199
-0.1694585090846282
-0.1694467718279971
-0.1693562018306405
-0.1691674899958435
-0.1688752970888578
-0.1684368767504317
-0.1680055359247098
-0.1675554267330554
-0.1666179453392281
-0.1649742287729315
-0.163205722634595
-0.1622942791047473
-0.1618144827110798
-0.1613896086460458
-0.1609441315353674
-0.1604160658107968
-0.1596655573822501
-0.1586346651436253
-0.1573216333175691
-0.1557466712350929
-0.1539031812973121
-0.1517686230738829
-0.1492924594236422
-0.1465019286228706
-0.1433796678211069
-0.1400333647967661
-0.1364064729751323
-0.132713836495966
-0.1287975400363207
-0.1250654571621308
-0.1211371944145003
-0.1177533665682729
-0.1140598392341705
-0.111422842248622
-0.1079976485359277
-0.1068540967735307
-0.1039642569394009
-0.1082543506554278
-0.1683506417534563
-0.1683505322348312
-0.1683504176401392
-0.1683503116212216
-0.1683502125917785
-0.168350120806479
-0.1683500391723806
-0.168349971898633
-0.1683499243097993
-0.1683499031820228
-0.1683499170902064
-0.1683499766852636
-0.1683500948954226
-0.1683502870098864
-0.1683505705715811
-0.1683509649989149
-0.1683514909086182
-0.1683521692111637
-0.1683530201477114
-0.1683540624703429
-0.1683553129446316
-0.1683567862904351
-0.168358495580784
-0.1683604529881433
-0.1683626706931932
-0.1683651617694749
-0.1683679409253696
-0.1683710250687452
-0.1683744337096155
-0.1683781892510959
-0.1683823172156515
-0.1683868464462445
-0.1683918093087021
-0.1683972419118432
-0.168403184353583
-0.1684096809968439
-0.1684167807758648
-0.1684245375309891
-0.1684330103672904
-0.1684422640341157
-0.1684523693166926
-0.1684634034289683
-0.1684754503983538
-0.1684886014222096
-0.168502955176182
-0.1685186180474396
-0.1685357042582841
-0.1685543358405295
-0.1685746424117047
-0.1685967607001882
-0.1686208337586946
-0.1686470098002101
-0.1686754405925144
-0.1687062793356494
-0.1687396779468376
-0.1687757836579437
-0.1688147348078363
-0.1688566556617994
-0.1689016500104486
-0.1689497931647038
-0.1690011216935818
-0.1690556197354384
-0.1691131996463477
-0.1691736725804248
-0.1692367001923856
-0.1693017095795868
-0.1693677343154305
-0.1694331055868708
-0.1694948617629951
-0.1695476757468148
-0.1695815702602873
-0.1695741532183586
-0.1694891663637518
-0.1693045628265352
-0.1690198079539202
-0.1685923436720096
-0.1681256316850923
-0.1677266055156688
-0.1668937046079941
-0.1652644080653231
-0.1634341232231871
-0.1624091844686586
-0.1618469511792241
-0.1613453058466262
-0.1608297879890854
-0.1602409262755366
-0.1594346324196808
-0.1583488482450712
-0.1569837276813072
-0.1553623914885236
-0.1534809543112013
-0.1513183465362127
-0.1488229549506651
-0.1460215637904242
-0.1428953529863832
-0.1395525664441883
-0.135934354581328
-0.1322566122116395
-0.1283579406112501
-0.1246486017791546
-0.1207431306426553
-0.1173866757085181
-0.113716705343364
-0.1111075896029039
-0.1076983341441674
-0.1065773097384787
-0.1036698024568545
-0.107878671540117
-0.1684480830635907
-0.1684479792627795
-0.168447870436892
-0.1684477701767647
-0.1684476773121328
-0.1684475923375192
-0.1684475183265567
-0.168447459679637
-0.1684474219552946
-0.1684474121982638
-0.1684474392829085
-0.1684475141765779
-0.1684476501266375
-0.1684478627183842
-0.1684481697374295
-0.1684485907577228
-0.168449146438006
-0.1684498576054052
-0.1684507443042304
-0.1684518250068543
-0.1684531161627001
-0.1684546321983027
-0.1684563859737976
-0.1684583895728228
-0.1684606552296879
-0.1684631962131202
-0.1684660275569941
-0.1684691666061135
-0.1684726334048268
-0.168476450975922
-0.1684806455389107
-0.1684852467047702
-0.1684902876733804
-0.1684958054471073
-0.1685018410680945
-0.1685084398817098
-0.1685156518234207
-0.1685235317297643
-0.1685321396646547
-0.1685415412593093
-0.1685518080547146
-0.1685630178419566
-0.1685752549874046
-0.1685886107313784
-0.1686031834465464
-0.1686190788370905
-0.1686364100588118
-0.1686552977317406
-0.1686758698146091
-0.1686982612966139
-0.1687226136537195
-0.1687490739980095
-0.1687777938353677
-0.1688089273211668
-0.1688426288887195
-0.1688790501032354
-0.1689183355751885
-0.1689606177401528
-0.1690060102498306
-0.1690545996060206
-0.1691064343969337
-0.1691615109681792
-0.1692197532787889
-0.1692809825367755
-0.1693448679181907
-0.1694108409832705
-0.1694779382810728
-0.16954450005484
-0.1696075965500423
-0.1696619801026562
-0.1696979354475673
-0.1696945326058824
-0.1696154187209159
-0.1694345441714589
-0.1691544054562354
-0.1687365222871434
-0.1682385844320984
-0.1678799746964477
-0.1671420159180272
-0.1655347280513094
-0.1636633259007982
-0.1625265047181684
-0.1618849832657976
-0.1613071143438963
-0.1607210175058357
-0.1600705328267484
-0.1592080177548846
-0.1580669232107777
-0.1566491323423392
-0.1549806504330732
-0.153060313838577
-0.150868657667813
-0.1483531183226414
-0.1455400904126879
-0.1424092894961285
-0.1390695268579616
-0.1354596474138859
-0.1317965822286417
-0.1279154571725542
-0.1242288433147143
-0.1203462835367711
-0.1170172497225363
-0.1133710766092957
-0.1107898067169821
-0.1073969166365703
-0.1062984271761384
-0.1033738260368382
-0.1075052897422682
-0.168548129954859
-0.1685480341742231
-0.1685479336223269
-0.1685478414272277
-0.1685477568585027
-0.1685476806799253
-0.1685476161127133
-0.1685475677092146
-0.1685475412126032
-0.1685475438791151
-0.1685475848093384
-0.1685476752041588
-0.1685478285302846
-0.1685480605514117
-0.1685483891529035
-0.1685488338895104
-0.1685494152455856
-0.1685501537085471
-0.1685510688314169
-0.1685521784824504
-0.1685534984489114
-0.1685550425005166
-0.1685568228982083
-0.1685588512171957
-0.1685611392821112
-0.168563700040533
-0.1685665482701623
-0.1685697011019358
-0.168573178387535
-0.1685770029625618
-0.1685812008543732
-0.1685858014723898
-0.1685908378039476
-0.1685963466302491
-0.1686023687698428
-0.1686089493508976
-0.1686161381136299
-0.1686239897388217
-0.1686325641988271
-0.1686419271275779
-0.1686521502004301
-0.1686633115178834
-0.1686754959786304
-0.1686887956321575
-0.1687033099881602
-0.1687191462633987
-0.1687364195370905
-0.1687552527791206
-0.1687757767123953
-0.1687981294602615
-0.1688224559255281
-0.1688489068404086
-0.1688776374189244
-0.1689088055358927
-0.1689425693394814
-0.1689790841830994
-0.1690184987213677
-0.1690609499569856
-0.1691065569249418
-0.1691554125506108
-0.1692075729333376
-0.1692630427826094
-0.1693217546926165
-0.1693835378513797
-0.1694480676283806
-0.1695147791313555
-0.1695827107014507
-0.1696502086659589
-0.1697143671812309
-0.1697700016605092
-0.1698076462719115
-0.16980792230573
-0.1697348290544398
-0.1695577004434754
-0.1692807291917648
-0.1688718525689613
-0.1683583035011199
-0.1680215988788105
-0.1673488467442327
-0.1657877157446556
-0.1638934040097358
-0.162646916481747
-0.1619286395094281
-0.1612749876501045
-0.1606175959558969
-0.1599045260231246
-0.1589852722723608
-0.1577884270228322
-0.1563173950125587
-0.1546010435292983
-0.1526409247269166
-0.1504192914826735
-0.1478827494630622
-0.1450573648309197
-0.1419213808178615
-0.1385841847351312
-0.1349823176450602
-0.1313337304609782
-0.1274700875150572
-0.1238061855292225
-0.1199466625834683
-0.116645097832731
-0.1130229625942429
-0.1104694995626556
-0.1070934059410785
-0.1060174727942422
-0.1030763876452894
-0.1071348363300762
-0.1686398817369463
-0.1686397921953998
-0.1686396979844756
-0.1686396120424276
-0.1686395340944508
-0.1686394652048979
-0.1686394088175527
-0.1686393697398222
-0.1686393540310822
-0.1686393693229277
-0.1686394251496042
-0.16863953319711
-0.1686397074533919
-0.1686399642099467
-0.1686403218456148
-0.1686408003249127
-0.1686414204197351
-0.1686422027628142
-0.1686431669167576
-0.1686443306538352
-0.1686457096084597
-0.1686473173975533
-0.1686491661841598
-0.16865126753274
-0.1686536333558789
-0.1686562767765278
-0.1686592128148726
-0.1686624588855259
-0.1686660351397095
-0.1686699647074141
-0.1686742738860235
-0.1686789923126754
-0.1686841531437106
-0.168689793253823
-0.1686959534617243
-0.1687026787838239
-0.1687100187156313
-0.1687180275380784
-0.1687267646463255
-0.168736294895332
-0.1687466889581147
-0.1687580236879239
-0.1687703824782363
-0.168783855608549
-0.1687985405639577
-0.1688145423125642
-0.1688319735203105
-0.1688509546785186
-0.1688716141111084
-0.1688940878197578
-0.1689185191126222
-0.1689450579470572
-0.1689738598953101
-0.1690050846244298
-0.1690388937531304
-0.1690754479258858
-0.1691149029151084
-0.1691574045208548
-0.1692030819676391
-0.1692520393584686
-0.1693043444701041
-0.1693600136220469
-0.1694189902889081
-0.1694811130260806
-0.1695460642009322
-0.1696132829718598
-0.1696818097642409
-0.1697499966728137
-0.1698149603780378
-0.169871579516139
-0.1699106387495226
-0.1699142028945517
-0.1698470025017843
-0.1696739675564956
-0.1694002534065115
-0.168999743198465
-0.1684814260626886
-0.1681522196924884
-0.1675220979800919
-0.1660269389590952
-0.1641214130372855
-0.1627688498418705
-0.1619763574626667
-0.1612479058841439
-0.1605187074333241
-0.1597421638308464
-0.1587657035552927
-0.1575127628308286
-0.1559880256056345
-0.1542231843293135
-0.1522224957334492
-0.1499700371669264
-0.1474117041646362
-0.1445732975293677
-0.1414315821947627
-0.1380965281882039
-0.1345023772934487
-0.1308680826834429
-0.1270218659123557
-0.1233806639802976
-0.1195443029126421
-0.1162702508166228
-0.1126723929219808
-0.1101466988340973
-0.1067878392880062
-0.1057344927890795
-0.1027775579194787
-0.1067675830258576
-0.1687405821895324
-0.1687404964889631
-0.1687404061067318
-0.1687403239787327
-0.1687402500778694
-0.1687401855791282
-0.1687401339728394
-0.1687401001125585
-0.1687400900966957
-0.1687401115718919
-0.1687401740375689
-0.1687402890633466
-0.1687404704047326
-0.1687407339705979
-0.1687410975800001
-0.1687415804534154
-0.1687422024467203
-0.1687429831375421
-0.1687439409412763
-0.1687450924387763
-0.1687464520824468
-0.1687480323671236
-0.1687498444324694
-0.1687518989387709
-0.1687542070090194
-0.1687567810718747
-0.1687596355209882
-0.1687627871854462
-0.1687662556533478
-0.1687700635002759
-0.1687742364741811
-0.1687788036692164
-0.1687837977131465
-0.1687892549785575
-0.1687952158253076
-0.1688017248748935
-0.168808831316474
-0.168816589242692
-0.1688250580111816
-0.1688343026278581
-0.1688443941457916
-0.1688554100721643
-0.1688674347736912
-0.1688805598676953
-0.1688948845840621
-0.1689105160750875
-0.1689275696510137
-0.1689461689067571
-0.1689664457027313
-0.1689885399508828
-0.1690125991534222
-0.1690387776266256
-0.1690672353365187
-0.1690981362591437
-0.1691316461617757
-0.1691679296752228
-0.1692071464902122
-0.1692494464437861
-0.1692949631608411
-0.1693438057405849
-0.1693960476780701
-0.1694517116581902
-0.1695107478137156
-0.1695730010035008
-0.1696381587173534
-0.1697056634783732
-0.1697745582860647
-0.1698432026329803
-0.169908739733521
-0.169966123448455
-0.1700063932680851
-0.1700128140190871
-0.1699511382746406
-0.169782648360535
-0.1695129170652563
-0.1691199394706106
-0.1686014774165846
-0.1682672052688719
-0.1676714743615215
-0.166254828029933
-0.1643418498219951
-0.1628882186243444
-0.1620248027980714
-0.1612241006205057
-0.1604231656580052
-0.1595823657709223
-0.1585483188275059
-0.1572391448704288
-0.1556604634663054
-0.1538466863895555
-0.1518047555624942
-0.1495206997991122
-0.1469398484327953
-0.1440878075090563
-0.1409398574825511