/*--------------------------------*- C++ -*----------------------------------*\
| =========                 |                                                 |
| \\      /  F ield         | OpenFOAM: The Open Source CFD Toolbox           |
|  \\    /   O peration     | Version:  v1812                                 |
|   \\  /    A nd           | Web:      www.OpenFOAM.com                      |
|    \\/     M anipulation  |                                                 |
\*---------------------------------------------------------------------------*/
FoamFile
{
    version     2.0;
    format      ascii;
    class       surfaceScalarField;
    location    "1000";
    object      phi;
}
// * * * * * * * * * * * * * * * * * * * * * * * * * * * * * * * * * * * * * //

dimensions      [0 3 -1 0 0 0 0];
oriented        oriented;


internalField   nonuniform List<scalar> 
21847
(
1.551500363254462e-06
-7.591182053981302e-06
1.689305058561999e-06
-8.207786069816558e-06
1.838389595378219e-06
-8.861778537798108e-06
1.999567570691007e-06
-9.552775046024487e-06
2.173686865084307e-06
-1.027959345617253e-05
2.361623971468557e-06
-1.104002329114156e-05
2.564275717453763e-06
-1.183053881486724e-05
2.782547470191211e-06
-1.264594111367105e-05
3.017336720837552e-06
-1.3478910112591e-05
3.269511065609901e-06
-1.431944040270192e-05
3.539878996075453e-06
-1.515412391245931e-05
3.82915283115492e-06
-1.596522523116438e-05
4.13790383923632e-06
-1.672946496669903e-05
4.466513657298808e-06
-1.741637260713066e-05
4.815135539654451e-06
-1.798596681454641e-05
5.18370276241319e-06
-1.838531545779617e-05
5.57208072851166e-06
-1.854309772842394e-05
5.980608892849053e-06
-1.836034569020111e-05
6.411683180748426e-06
-1.769334634217151e-05
6.874254326062366e-06
-1.631914085550517e-05
7.39440335833432e-06
-1.385981694567131e-05
8.028835419611512e-06
-9.648920877933724e-06
8.881819027730699e-06
-2.563818230515244e-06
1.014893792147737e-05
9.239437200113209e-06
1.218754851986283e-05
2.882253489698935e-05
1.555276613327612e-05
6.112262365412757e-05
2.114228207313753e-05
0.0001133951735315209
3.040731014593814e-05
0.0001963138099046639
4.393562308763039e-05
0.0003220477983864936
5.847643789577194e-05
0.0004862903920481707
6.881920796967561e-05
0.000655623197812001
7.32676336879128e-05
0.0007967868528153404
7.42650360483724e-05
0.0009089391422347501
7.462680652871191e-05
0.001014454736774558
7.522614442521193e-05
0.00113085143565267
7.570507376536779e-05
0.001260885311137422
7.56252568691835e-05
0.001399784669728143
7.481543276643117e-05
0.001542318508336224
7.337922583230911e-05
0.001686329931121807
7.159194169311339e-05
0.001834385595460893
6.968322251918723e-05
0.001991875179387116
6.77081450385796e-05
0.002163022124944025
6.561522332832864e-05
0.002349385730056944
6.33525590618196e-05
0.002551416081254114
6.089514233708569e-05
0.002769920638194466
5.822353901840114e-05
0.003006267443657942
5.531714914683639e-05
0.003261988063798306
5.21487516482278e-05
0.003538899730892889
4.869441974032501e-05
0.003838754094796958
4.491951561846112e-05
0.004163997665038539
4.07993238556174e-05
0.004516259485906329
3.62938701968303e-05
0.00489914870907011
3.138513575718267e-05
0.00531356073401222
2.601304768950953e-05
0.005751075443264959
2.024075469477983e-05
0.006181661291802553
1.397157452243282e-05
0.006620163744420582
6.952781492560629e-06
0.007118576660297146
0.007807869220899097
1.303375410450217e-06
-6.57687415829265e-06
1.420502925046452e-06
-7.128866120987559e-06
1.547333512215743e-06
-7.718012654996096e-06
1.684591915621724e-06
-8.34504448365618e-06
1.833041496714433e-06
-9.010228127229675e-06
1.993482236659176e-06
-9.713215792970647e-06
2.166747310308278e-06
-1.045285853586878e-05
2.353697673564796e-06
-1.122697365965648e-05
2.555213852790015e-06
-1.203205499859321e-05
2.772184350558897e-06
-1.28629116151559e-05
3.005489468558432e-06
-1.371221523345357e-05
3.255979329810084e-06
-1.456993026586472e-05
3.524444897838541e-06
-1.542258948132101e-05
3.811580652588697e-06
-1.625236098541496e-05
4.117939084898135e-06
-1.703582339677905e-05
4.443879976286309e-06
-1.774231349367515e-05
4.789525843986739e-06
-1.833161267342334e-05
5.15475582025563e-06
-1.875054541937025e-05
5.539321285614632e-06
-1.892766317327766e-05
5.943297205982013e-06
-1.876432158530011e-05
6.368426138784897e-06
-1.811847524960968e-05
6.821894416509177e-06
-1.677260911195743e-05
7.325949916157349e-06
-1.436387243404291e-05
7.931512253320912e-06
-1.025448321665106e-05
8.732797251054071e-06
-3.36510324436455e-06
9.90450733717751e-06
8.067727087833665e-06
1.177107386176915e-05
2.695596834254436e-05
1.48391803309246e-05
5.805451715800443e-05
1.990602139460091e-05
0.0001083283324412426
2.833206059677104e-05
0.0001878877706773841
4.10052889775097e-05
0.0003093745699837188
5.530995333638283e-05
0.0004719857276702406
6.606524837109978e-05
0.0006448679027583618
7.099690881536878e-05
0.0007918551923489446
7.217125568662697e-05
0.0009077647953324787
7.249267061478015e-05
0.001014133321805216
7.303508264842898e-05
0.001130309023571248
7.350639830629384e-05
0.00126041399543622
7.34542102458606e-05
0.001399836857761641
7.268898382238595e-05
0.001543083734755858
7.130101664508917e-05
0.001687717898318275
6.955823822223252e-05
0.001836128373924212
6.769288476828575e-05
0.001993740532895697
6.576646076156761e-05
0.002164948549005356
6.373036532567635e-05
0.002351421825461109
6.15324028529282e-05
0.002553614043903375
5.914715564159821e-05
0.002772305885202898
5.655531910910883e-05
0.003008859280342648
5.373661546776917e-05
0.003264806767166331
5.066400861341782e-05
0.003541972337742501
4.731386964550062e-05
0.003842104233595101
4.365186180816152e-05
0.004167659672633003
3.965370539245724e-05
0.004520257642356245
3.527996232034739e-05
0.004903522451610377
3.051367579480431e-05
0.005318327020934087
2.529842101086364e-05
0.005756290697652002
1.969647331278012e-05
0.006187263239922188
1.36081140653779e-05
0.006626252103553151
6.781304013733767e-06
0.007125403470493845
0.007814650524970521
1.093498140733949e-06
-5.671461093722941e-06
1.192866524818659e-06
-6.160330522810841e-06
1.300550112783858e-06
-6.684557755433052e-06
1.417186942695734e-06
-7.245502957736067e-06
1.543453277369239e-06
-7.84427899504639e-06
1.680063497529397e-06
-8.481654708261144e-06
1.827769159857288e-06
-9.157933793355783e-06
1.98735702846637e-06
-9.872803664881551e-06
2.159645558189136e-06
-1.062514706842039e-05
2.345479455933325e-06
-1.141280755976464e-05
2.54572160485934e-06
-1.223229714933004e-05
2.761241515594883e-06
-1.307843152711982e-05
2.992899269095064e-06
-1.394387298745446e-05
3.24152373612572e-06
-1.48185547325983e-05
3.507883557113322e-06
-1.56889493009725e-05
3.79264979629948e-06
-1.653712722193569e-05
4.096349730859387e-06
-1.73395233267722e-05
4.41931409726277e-06
-1.806527785258839e-05
4.761627555332364e-06
-1.867392611986472e-05
5.123109756945227e-06
-1.911202760324399e-05
5.503399724132632e-06
-1.930795311697273e-05
5.902328769697653e-06
-1.916325060266102e-05
6.321058963925172e-06
-1.853720541547313e-05
6.765272682334526e-06
-1.721682280646056e-05
7.25383119951351e-06
-1.485243093710033e-05
7.832330706275086e-06
-1.083298272261799e-05
8.586411638127112e-06
-4.119184189922504e-06
9.673428318405646e-06
6.980710382670134e-06
1.138967150660983e-05
2.523972512391131e-05
1.419713429496855e-05
5.524705434023586e-05
1.879785563518351e-05
0.0001037276110731812
2.645192472811868e-05
0.0001802337015596553
3.826346979648815e-05
0.000297563024894271
5.222719855917518e-05
0.0004580219988896093
6.330412914194942e-05
0.0006337909721580053
6.870393343933532e-05
0.0007864553880316108
7.007877427233324e-05
0.0009063899544729132
7.037349015773908e-05
0.001013838605886205
7.085755360653921e-05
0.001129824960084816
7.131667699429826e-05
0.001259954872015004
7.128890289600681e-05
0.001399864631839232
7.05663727969032e-05
0.001543806264851563
6.922603369536951e-05
0.001689058237433645
6.752805431564014e-05
0.001837826353332932
6.570644385330937e-05
0.001995562143396138
6.382874662565823e-05
0.002166826246270732
6.184935922804428e-05
0.002353401212839003
5.971593777260801e-05
0.002555747465479909
5.740268487131374e-05
0.002774619137967232
5.48904169823473e-05
0.00301137154833737
5.215917941186027e-05
0.003267538004552271
4.918213133639035e-05
0.003544949385819907
4.593594245980721e-05
0.003845350422358197
4.238658545316379e-05
0.004171209029483319
3.85102144229047e-05
0.004524134013414086
3.426793565307165e-05
0.004907764730032143
2.964383744254898e-05
0.005322951119412854
2.458513326372748e-05
0.005761349401566876
1.915320839476688e-05
0.006192695165072401
1.32450707068013e-05
0.0066321602411623
6.609234723563611e-06
0.007132039306574473
0.007821259759730696
7.509141161877294e-11
-2.63985125227215e-09
3.030389200836548e-10
-8.012665569808126e-09
6.909202430256825e-10
-1.363429274677935e-08
1.250439805022702e-09
-1.966875177162157e-08
1.998303411709904e-09
-2.629269111070561e-08
2.956692704977906e-09
-3.37003851008601e-08
4.153864051980244e-09
-4.210907362546494e-08
5.62483328372293e-09
-5.176451501011971e-08
7.412097135860327e-09
-6.294645710635997e-08
9.566253205838989e-09
-7.597333755772738e-08
1.214627621520828e-08
-9.12049134621994e-08
1.521905771357052e-08
-1.090406797002471e-07
1.885771541229549e-08
-1.299110424568641e-07
2.313814478294571e-08
-1.542581531626665e-07
2.813388992874448e-08
-1.825054781015998e-07
3.391026188842195e-08
-2.150207643646366e-07
4.051996715017416e-08
-2.520849447353649e-07
4.800258913288912e-08
-2.938828797051228e-07
5.638845778828709e-08
-3.40524307913473e-07
6.570534776967968e-08
-3.920877630229435e-07
7.598513580870447e-08
-4.486694789857081e-07
8.726875737041376e-08
-5.104218721367384e-07
9.960903072937722e-08
-5.775762699604623e-07
1.130719405831554e-07
-6.504520290213647e-07
1.277369452070458e-07
-7.294569532346393e-07
1.436968376258837e-07
-8.150831416028639e-07
1.610573607515249e-07
-9.079012077600303e-07
1.799370038180512e-07
-1.008554863702238e-06
2.004668868557446e-07
-1.117756660061655e-06
2.227909131246134e-07
-1.236285308919302e-06
2.470661541744082e-07
-1.364984650362152e-06
2.734634058171273e-07
-1.504763847564852e-06
3.02167951451945e-07
-1.65659858649262e-06
3.333804661592997e-07
-1.821532900701225e-06
3.673180107662587e-07
-2.000681175934123e-06
4.042152088836451e-07
-2.195230222021471e-06
4.443254502919472e-07
-2.406440861056387e-06
4.879222077621852e-07
-2.635648926670471e-06
5.353004404252311e-07
-2.884265272256635e-06
5.867779984426771e-07
-3.153774365351308e-06
6.426971965482573e-07
-3.445731246581417e-06
7.0342631651719e-07
-3.761756060661321e-06
7.693611798439847e-07
-4.103525806826467e-06
8.409267749500391e-07
-4.472762489387816e-06
9.185787704480241e-07
-4.871216637902363e-06
1.002805102736182e-06
-5.300645364638381e-06
1.094127362378146e-06
-5.762783354961486e-06
1.19310211556534e-06
-6.259305277555549e-06
1.300321978648673e-06
-6.791777619992939e-06
1.41641639635915e-06
-7.361597376817387e-06
1.542051988687817e-06
-7.969914588605231e-06
1.677932329460867e-06
-8.617535050099108e-06
1.824796865852378e-06
-9.304798330590294e-06
1.983418836954805e-06
-1.003142563658316e-05
2.154601638967467e-06
-1.079632987070816e-05
2.339173282895592e-06
-1.159737920363663e-05
2.537978254966623e-06
-1.2431102120899e-05
2.751865890031349e-06
-1.329231916124005e-05
2.981674328822307e-06
-1.417368142468267e-05
3.228208604954719e-06
-1.506508900650004e-05
3.49221162541544e-06
-1.595295231820461e-05
3.774326420073674e-06
-1.681924201203078e-05
4.075049129392567e-06
-1.764024602941151e-05
4.394674353644012e-06
-1.838490306688575e-05
4.733240649709555e-06
-1.901249240126157e-05
5.090500126579689e-06
-1.946928705926615e-05
5.465975179024962e-06
-1.968342814237318e-05
5.859263157481645e-06
-1.955653854979119e-05
6.271001062706207e-06
-1.894894328923479e-05
6.705590629615416e-06
-1.765141234705017e-05
7.178915185668099e-06
-1.532575547699612e-05
7.731621287690646e-06
-1.138568882254021e-05
8.441871413029972e-06
-4.829434328232083e-06
9.452513818977848e-06
5.970067951224801e-06
1.103510546070103e-05
2.365713344969394e-05
1.361187906685716e-05
5.267028070107317e-05
1.779636279859031e-05
9.954312731089892e-05
2.474335818687494e-05
0.0001732867061450514
3.570152866753397e-05
0.0002866048543917254
4.923343554059029e-05
0.0004444900919981342
6.053840639400248e-05
0.0006224860012866744
6.638157772815827e-05
0.0007806122166776225
6.797577464295276e-05
0.0009047957575328915
6.825806826054287e-05
0.001013556312238311
6.868348720464562e-05
0.001129399541108228
6.912607235338378e-05
0.001259512286838337
6.911948908395237e-05
0.001399871215092011
6.843781589341291e-05
0.001544487938040069
6.714460887215412e-05
0.001690351444467386
6.549191228636436e-05
0.00183947904994336
6.37146952374642e-05
0.001997339360475855
6.188611101568113e-05
0.002168654830524259
5.996363680988492e-05
0.002355323687035709
5.789493310027822e-05
0.002557816169272814
5.565385831268243e-05
0.002776860212664882
5.322134458710864e-05
0.00301380406213305
5.057776351056495e-05
0.003270181585505197
4.769647939690017e-05
0.003547830669934319
4.455446663696195e-05
0.003848492435040537
4.111801664117406e-05
0.004174645479377561
3.736371867370484e-05
0.004527888311398212
3.325323686997734e-05
0.004911875211614011
2.877169551970749e-05
0.005327432660935187
2.386994932810765e-05
0.005766251147590442
1.860846976874688e-05
0.00619795664481151
1.288076194246676e-05
0.006637887948937994
6.435754158863144e-06
0.007138484314421227
0.007827695513911817
7.803121008526319e-11
-2.717882474778803e-09
3.145763302285946e-10
-8.249210714073796e-09
7.16742330018249e-10
-1.403645877150115e-08
1.296457902613399e-09
-2.024846737209177e-08
2.070799913202796e-09
-2.706703315167948e-08
3.062466260346168e-09
-3.469205148177397e-08
4.30036830660409e-09
-4.334697570985501e-08
5.820313109798767e-09
-5.328445985706508e-08
7.665697768772458e-09
-6.479184181773612e-08
9.888075907597505e-09
-7.819571575683036e-08
1.254735396272399e-08
-9.386419159011171e-08
1.571116205408951e-08
-1.122044878787867e-07
1.945292911586289e-08
-1.336528096244721e-07
2.384817157253622e-08
-1.586533957440851e-07
2.896910273866039e-08
-1.876264094146004e-07
3.487880301814792e-08
-2.209304648153069e-07
4.162719417826843e-08
-2.588333360926202e-07
4.925107340222896e-08
-3.015067591511127e-07
5.777852996969064e-08
-3.490517647249067e-07
6.723583335878587e-08
-4.015450666792503e-07
7.765402453435122e-08
-4.590876704495149e-07
8.907368716455364e-08
-5.218415350775426e-07
1.015475656162858e-07
-5.900501487410317e-07
1.151416264057059e-07
-6.640460901589525e-07
1.299351518871915e-07
-7.442504790841623e-07
1.460205106257171e-07
-8.311685007302253e-07
1.635028538591089e-07
-9.25383551404584e-07
1.824998946825101e-07
-1.027551904959251e-06
2.031418498520492e-07
-1.138398615689562e-06
2.25571645487442e-07
-1.25871510503919e-06
2.499452628901819e-07
-1.389358268275908e-06
2.764323168399508e-07
-1.531250902052231e-06
3.052167737494978e-07
-1.685383043967257e-06
3.364978464362449e-07
-1.852813973977914e-06
3.704909779602798e-07
-2.034674308071591e-06
4.074289383816566e-07
-2.232168183074183e-06
4.4756302015626e-07
-2.446574943473101e-06
4.911643112982408e-07
-2.679250218454836e-06
5.385250228073193e-07
-2.931625984395738e-06
5.899599324354129e-07
-3.205209275577477e-06
6.458077694992724e-07
-3.501579084188531e-06
7.064327883921672e-07
-3.822381080015507e-06
7.722262585894522e-07
-4.16931927737219e-06
8.436079894101836e-07
-4.544144220417874e-06
9.210278789966691e-07
-4.948636527545673e-06
1.004967374948503e-06
-5.384584860485672e-06
1.095940835135227e-06
-5.853756814869003e-06
1.194496824350389e-06
-6.357861266317704e-06
1.301219095988042e-06
-6.898499890995254e-06
1.416727334786521e-06
-7.477105614808975e-06
1.541677444090254e-06
-8.094864696916799e-06
1.676761201659152e-06
-8.752618806509506e-06
1.822705172701808e-06
-9.450742300272545e-06
1.980268412742586e-06
-1.018898887508409e-05
2.150238800159342e-06
-1.096630025633488e-05
2.333427269693228e-06
-1.17805676711574e-05
2.530659542148159e-06
-1.262833439099695e-05
2.742764304272025e-06
-1.350442392068788e-05
2.970556920174256e-06
-1.440147403739001e-05
3.2148173601032e-06
-1.53093494426678e-05
3.476260787049774e-06
-1.621439574043639e-05
3.75549934349323e-06
-1.709848056241217e-05
4.05299417999446e-06
-1.793774085758781e-05
4.36899866037115e-06
-1.870090753532555e-05
4.703499293892388e-06
-1.934699301778372e-05
5.056174835386567e-06
-1.98219625771385e-05
5.426428450880503e-06
-2.005368172789975e-05
5.813633941299736e-06
-1.994374400578166e-05
6.217955743412844e-06
-1.935326505717787e-05
6.642703118263961e-06
-1.807615969338396e-05
7.101124306159659e-06
-1.578417664738765e-05
7.629219220882228e-06
-1.191378373465547e-05
8.298402159005844e-06
-5.498617279715512e-06
9.238541248695016e-06
5.029928834465264e-06
1.069754620918354e-05
2.219812845411058e-05
1.30653511793256e-05
5.030247569431031e-05
1.68821579681161e-05
9.572632048860598e-05
2.319192014928722e-05
0.0001669769439355684
3.332146831941678e-05
0.0002764753061983804
4.634936868552478e-05
0.0004314621916126002
5.779182291916437e-05
0.0006110435470341407
6.404691409355259e-05
0.0007743571254825802
6.587495780336257e-05
0.0009029677137975669
6.615952579118636e-05
0.00101327174422099
6.652732637917422e-05
0.001129031740489788
6.694950996222592e-05
0.001259090103229961
6.696091427673799e-05
0.001399859810763124
6.631809600870916e-05
0.001545130756307378
6.507120945042284e-05
0.001691598331038444
6.346389463953372e-05
0.001841086364777905
6.173134305345515e-05
0.001999071912090044
5.995187547645225e-05
0.002170434298132112
5.808609995577448e-05
0.002357189462554867
5.608182267473872e-05
0.002559820446614273
5.391259652470537e-05
0.002779029438754554
5.155946435444073e-05
0.003016157194349957
4.900312399489738e-05
0.003272737925778597
4.621715408736083e-05
0.003550616639839497
4.317883520660992e-05
0.003851530753864692
3.985478563854394e-05
0.004177969528876202
3.622202778010147e-05
0.00453152106926423
3.224279133958451e-05
0.004915854447911591
2.790321808833209e-05
0.005331772234295472
2.315778915761321e-05
0.005770996576415019
1.806603933541278e-05
0.006203048394747983
1.251779396834202e-05
0.006643436194273514
6.262255103204135e-06
0.0071447398533276
0.0078339577690282
8.082154470798662e-11
-2.798704011905053e-09
3.256991945005782e-10
-8.494088348325254e-09
7.417797681416927e-10
-1.445253932691311e-08
1.341136393847752e-09
-2.084782397814594e-08
2.141125040045537e-09
-2.786702177360763e-08
3.164849675781824e-09
-3.57157760925007e-08
4.441748549471282e-09
-4.462387455340568e-08
6.008253607743489e-09
-5.485096488228551e-08
7.908461057866937e-09
-6.669204922823016e-08
1.019464387143377e-08
-8.048189852420764e-08
1.292732297848956e-08
-9.659687064405945e-08
1.617449548947654e-08
-1.154516603261069e-07
2.000945058270933e-08
-1.37487764639467e-07
2.450680627133577e-08
-1.63150751340182e-07
2.973695152392574e-08
-1.928565545571732e-07
3.576029816935764e-08
-2.269538113338653e-07
4.262372810052679e-08
-2.656967658773104e-07
5.036123399881405e-08
-3.092442648847982e-07
5.899882319665185e-08
-3.576893537383452e-07
6.856141713802348e-08
-4.111076604183598e-07
7.90792251436517e-08
-4.696054782358843e-07
9.059218628854935e-08
-5.333544959876676e-07
1.031523620924898e-07
-6.026103242939084e-07
1.168249871577409e-07
-6.777187149588327e-07
1.316886256748013e-07
-7.591141173195498e-07
1.478349927948577e-07
-8.473148675515051e-07
1.653686238648399e-07
-9.429171821574352e-07
1.844066470766306e-07
-1.04658992783514e-06
2.050787357923808e-07
-1.159070704048529e-06
2.275272235023477e-07
-1.281163592369218e-06
2.519074400585587e-07
-1.413738484427157e-06
2.78388265392957e-07
-1.557731726953795e-06
3.071528399552758e-07
-1.714147618067843e-06
3.383993482754795e-07
-1.884060481804752e-06
3.723420455574935e-07
-2.068617004826807e-06
4.092122812149046e-07
-2.269038418169546e-06
4.492596543961879e-07
-2.486622316055637e-06
4.927532509971529e-07
-2.72274381441867e-06
5.399829383496134e-07
-2.978855671070908e-06
5.912607185996317e-07
-3.256487055108195e-06
6.46922152302321e-07
-3.557240517127482e-06
7.07327790905423e-07
-3.882786717806896e-06
7.728646664276743e-07
-4.234856152027945e-06
8.439477645686507e-07
-4.615227317632143e-06
9.210215136040735e-07
-5.025710275579999e-06
1.004561178931466e-06
-5.468124524727749e-06
1.095074243467869e-06
-5.944269878214039e-06
1.193101543732341e-06
-6.455888565272127e-06
1.299218273174288e-06
-7.004616618977022e-06
1.414034621353608e-06
-7.591921961368911e-06
1.538196007522579e-06
-8.219026081266413e-06
1.672382633308228e-06
-8.886805430280499e-06
1.817308269500284e-06
-9.59566793420236e-06
1.973717874620592e-06
-1.034539847772146e-05
2.142383742854092e-06
-1.113496612179148e-05
2.324099609318682e-06
-1.196228353460051e-05
2.51967215247303e-06
-1.282390693077025e-05
2.729908999563874e-06
-1.371466076408937e-05
2.955602213377446e-06
-1.462716724700512e-05
3.197505887859934e-06
-1.555125311240821e-05
3.456306390852462e-06
-1.647319623772763e-05
3.732583598049674e-06
-1.73747577625282e-05
4.026761870744831e-06
-1.823191912079713e-05
4.339051301135212e-06
-1.901319695237424e-05
4.669384442609857e-06
-1.967732614036134e-05
5.017366073385906e-06
-2.016994418219387e-05
5.382284329988541e-06
-2.041859995196712e-05
5.763307640227134e-06
-2.032476727920126e-05
6.160185691528899e-06
-1.975014307196958e-05
6.575300123376121e-06
-1.849127409492803e-05
7.019578497424558e-06
-1.622845500277302e-05
7.524676375112497e-06
-1.24188816093556e-05
8.155858406113995e-06
-6.129799324617723e-06
9.031372924590075e-06
4.154414287178377e-06
1.037663931882269e-05
2.085286202208314e-05
1.255503350455186e-05
4.812408146835938e-05
1.605012617265414e-05
9.223122778374043e-05
2.179183416674443e-05
0.0001612352359107542
3.113101821725788e-05
0.0002671361221228767
4.360422246957609e-05
0.0004189889873394271
5.510182833548511e-05
0.0005995459411479458
6.173425020135755e-05
0.0007677247035947044
6.380710850176391e-05
0.0009008948554705013
6.410894040364442e-05
0.00101296991228907
6.442155625397859e-05
0.001128719124609296
6.482017013418862e-05
0.001258691489325338
6.484646294145546e-05
0.001399833517942655
6.424022929809514e-05
0.00154573698995113
6.303825099909923e-05
0.001692800309351195
6.147561749340067e-05
0.00184264899830789
5.978714049139487e-05
0.002000760389119763
5.805589076148001e-05
0.002172165547894267
5.624562531285351e-05
0.002358999728006982
5.430441934292696e-05
0.002561761652632006
5.220555376418362e-05
0.002781128304290137
4.993017389707485e-05
0.003018432574249492
4.745929940121238e-05
0.003275208800209586
4.4766726648416e-05
0.003553309212586801
4.183003914903507e-05
0.003854467441318824
3.861618137125785e-05
0.004181183386602036
3.510259870123921e-05
0.004535034651935623
3.125208463224801e-05
0.00491970496188384
2.705175394786445e-05
0.005335972565050882
2.24596582251273e-05
0.005775588672068866
1.75343804971462e-05
0.006207973672550967
1.216197412926449e-05
0.006648808600621687
6.09178313861721e-06
0.007150810044346491
0.007840049552174502
8.29648311515614e-11
-2.881668836758747e-09
3.340582767116226e-10
-8.745181781084801e-09
7.604459576335244e-10
-1.487892699163117e-08
1.374387470811762e-09
-2.146176547207695e-08
2.193529119875915e-09
-2.868616340272664e-08
3.241365842751835e-09
-3.676361279147297e-08
4.547815986079543e-09
-4.593032467051568e-08
6.149873773286339e-09
-5.645302263951466e-08
8.092242192325347e-09
-6.86344176132064e-08
1.042777630442618e-08
-8.281743259683596e-08
1.321745667122994e-08
-9.938655096187185e-08
1.652941609225347e-08
-1.187636196892514e-07
2.043652255023503e-08
-1.413948710289104e-07
2.501211857766678e-08
-1.677263472863677e-07
3.032432665267932e-08
-1.981687625360402e-07
3.643040933831111e-08
-2.330598939076556e-07
4.337365739060715e-08
-2.726400137998559e-07
5.118470492695587e-08
-3.170553122761152e-07
5.988685886253394e-08
-3.663915075115335e-07
6.950314368782215e-08
-4.207239450648849e-07
8.006254018867789e-08
-4.801648745411507e-07
9.160418095725162e-08
-5.448961365475631e-07
1.041796733776167e-07
-6.151858164897363e-07
1.178539473982289e-07
-6.913929887399336e-07
1.327054420963217e-07
-7.739656117599305e-07
1.488257727960693e-07
-8.634351979758606e-07
1.663194335210966e-07
-9.604108425880731e-07
1.853035038575012e-07
-1.065573997854788e-06
2.059075237910628e-07
-1.179674723640237e-06
2.282736006737382e-07
-1.303529668881591e-06
2.525567550744372e-07
-1.438021638425302e-06
2.789253916809244e-07
-1.584100363121404e-06
3.075619905700462e-07
-1.742784216476283e-06
3.386639401207859e-07
-1.91516243082743e-06
3.724444454340247e-07
-2.10239750955697e-06
4.091335713450333e-07
-2.305727543436607e-06
4.48979375656085e-07
-2.526468119652925e-06
4.922491050473911e-07
-2.766013543018432e-06
5.392304553475887e-07
-3.025837020492963e-06
5.902328834619281e-07
-3.307489482247693e-06
6.455890076333251e-07
-3.612596640218906e-06
7.056559694328333e-07
-3.942853678412862e-06
7.708169073571009e-07
-4.300017088636009e-06
8.414823572683802e-07
-4.685892766099753e-06
9.180916708054412e-07
-5.102319587537937e-06
1.001114388196401e-06
-5.551147240404904e-06
1.091051496989814e-06
-6.034206985151758e-06
1.188436561954044e-06
-6.553273628246404e-06
1.293836631866723e-06
-7.110016686753729e-06
1.407852786009612e-06
-7.70593811324405e-06
1.531120300673557e-06
-8.34229359350494e-06
1.664308137207087e-06
-9.019993264250638e-06
1.808117616450755e-06
-9.739477410692147e-06
1.963279907143478e-06
-1.05005607654961e-05
2.130552050048387e-06
-1.130223826152496e-05
2.310710907957201e-06
-1.214244238912032e-05
2.50454441860181e-06
-1.301774043767046e-05
2.712839380374106e-06
-1.392295572179924e-05
2.93636461480609e-06
-1.485069247683578e-05
3.17584826126009e-06
-1.579073675367788e-05
3.431947575387726e-06
-1.67292955456498e-05
3.705209583477304e-06
-1.764801976294096e-05
3.996021140079001e-06
-1.852273066717273e-05
4.304548410488828e-06
-1.93217242084362e-05
4.630669926250705e-06
-2.000344763597636e-05
4.973918392181041e-06
-2.051319262068237e-05
5.333473840283407e-06
-2.077815536564613e-05
5.708318879997783e-06
-2.069961227989161e-05
6.097839772809382e-06
-2.013966392631534e-05
6.503619457031361e-06
-1.889705374724868e-05
6.934549948374282e-06
-1.665938547460029e-05
7.418290730694458e-06
-1.290262238862727e-05
8.014547686454614e-06
-6.726056295113471e-06
8.831635129982104e-06
3.337326812986529e-06
1.007493455068684e-05
1.960956256100056e-05
1.208342381328924e-05
4.611559216233487e-05
1.529572656105691e-05
8.901892499619781e-05
2.052942186719402e-05
0.0001560015405717066
2.912126822750555e-05
0.0002585442757359557
4.100449385444421e-05
0.0004071057616902994
5.24810791352305e-05
0.0005880693558455327
5.945265239858248e-05
0.0007607531303079513
6.177717730036763e-05
0.0008985703305406565
6.211085867070106e-05
0.001012636230887571
6.237173306738223e-05
0.001128458250181882
6.274415001183792e-05
0.001258319072356456
6.27823716207838e-05
0.001399795296321009
6.221045603958654e-05
0.001546308905533595
6.105186926920785e-05
0.001693958896136522
5.953305010763837e-05
0.00184416781749505
5.788789417904148e-05
0.002002405545076765
5.620381203292426e-05
0.002173849630074894
5.444770377668971e-05
0.002360755836269915
5.256802609039698e-05
0.002563641330359819
5.053782386971063e-05
0.002783158506476967
4.83383374291978e-05
0.003020632060714267
4.59509021301701e-05
0.003277596235454807
4.334953448074232e-05
0.003555910580228
4.051211691884379e-05
0.003857304858840943
3.740591859175088e-05
0.004184289584885737
3.400879606613929e-05
0.004538431774458797
3.028410312272489e-05
0.004923429654755896
2.621987914232928e-05
0.005340036789080941
2.177768261492299e-05
0.005780030868548583
1.701512907228877e-05
0.006212736226146462
1.181443930728434e-05
0.006654009290373956
5.92495753386936e-06
0.007156699526140976
0.00784597450971284
8.561607569609384e-11
-2.967284911515446e-09
3.448099453690119e-10
-9.00437565079936e-09
7.847352882645646e-10
-1.531885233400323e-08
1.417611366015621e-09
-2.20946415519182e-08
2.261145173172411e-09
-2.952969721194495e-08
3.338976783571128e-09
-3.78414444026472e-08
4.681227678072719e-09
-4.727257556676713e-08
6.325110551123904e-09
-5.809690551406007e-08
8.31551130275368e-09
-7.062481836693748e-08
1.070535514465106e-08
-8.520727644154112e-08
1.355542468691047e-08
-1.022366205072243e-07
1.693321837051316e-08
-1.221414133759032e-07
2.09102544978892e-08
-1.453719071608813e-07
2.555760188626175e-08
-1.723736946788386e-07
3.094007788237149e-08
-2.03551238538506e-07
3.71108427015089e-08
-2.392306587335545e-07
4.410887126482617e-08
-2.796380423712801e-07
5.196096336041557e-08
-3.249074043819495e-07
6.06875752139484e-08
-3.751181193767932e-07
7.030997628395439e-08
-4.303463461481737e-07
8.085632575680559e-08
-4.907112240305951e-07
9.236567211840496e-08
-5.564054829265733e-07
1.048899567153473e-07
-6.27710101104193e-07
1.184947725084311e-07
-7.049978045521447e-07
1.33259281130292e-07
-7.887301204022711e-07
1.492758508461973e-07
-8.794517677121549e-07
1.666495912190014e-07
-9.77784582981841e-07
1.854979915620675e-07
-1.084422398219321e-06
2.059507957401263e-07
-1.200127527840098e-06
2.281500657708825e-07
-1.325728938934447e-06
2.522504998413879e-07
-1.462122072517487e-06
2.784199088840884e-07
-1.610269772183787e-06
3.068399298927208e-07
-1.771204237503286e-06
3.377067857074797e-07
-1.946029286657026e-06
3.712322691784387e-07
-2.135922993037901e-06
4.076447343996689e-07
-2.342140008660764e-06
4.47190251112011e-07
-2.566013636358612e-06
4.901337539113886e-07
-2.80895704579795e-06
5.367603294719736e-07
-3.07246359601516e-06
5.873765378027306e-07
-3.35810569051582e-06
6.423117415318512e-07
-3.667531843852185e-06
7.019195305440394e-07
-4.002461467286296e-06
7.665791136838205e-07
-4.364676671580834e-06
8.366967508076312e-07
-4.756010402957655e-06
9.127071458284276e-07
-5.178329982201984e-06
9.95074768398235e-07
-5.633514862509122e-06
1.084295064036291e-06
-6.123427280186777e-06
1.180895521745369e-06
-6.649874085195798e-06
1.285436465415483e-06
-7.214557629471958e-06
1.398511545309777e-06
-7.819013191978894e-06
1.520747639963092e-06
-8.464529686747897e-06