/*--------------------------------*- C++ -*----------------------------------*\
| =========                 |                                                 |
| \\      /  F ield         | OpenFOAM: The Open Source CFD Toolbox           |
|  \\    /   O peration     | Version:  v1812                                 |
|   \\  /    A nd           | Web:      www.OpenFOAM.com                      |
|    \\/     M anipulation  |                                                 |
\*---------------------------------------------------------------------------*/
FoamFile
{
    version     2.0;
    format      ascii;
    class       volScalarField;
    location    "1000";
    object      profileRefFieldInversion;
}
// * * * * * * * * * * * * * * * * * * * * * * * * * * * * * * * * * * * * * //

dimensions      [0 0 0 0 0 0 0];


internalField   nonuniform List<scalar> 
11031
(
-0.128533
-0.12784
-0.126855
-0.125606
-0.124075
-0.122244
-0.120074
-0.117532
-0.114613
-0.111169
-0.107011
-0.101983
-0.09590750000000001
-0.0886233
-0.07983460000000001
-0.0695514
-0.0576842
-0.0432023
-0.024789
-0.00130158
0.0286368
0.0668868
0.11589
0.179676
0.261973
0.366198
0.494906
0.642248
0.788931
0.908173
0.984876
1.02577
1.04959
1.07135
1.09533
1.11925
1.13891
1.15135
1.15651
1.1572
1.15624
1.15466
1.15286
1.15084
1.14825
1.14513
1.14195
1.13888
1.13581
1.13272
1.12974
1.12694
1.12435
1.12205
1.12024
1.11914
1.11894
1.11854
-0.131734
-0.131618
-0.131228
-0.130514
-0.129493
-0.128203
-0.126625
-0.124729
-0.122449
-0.119747
-0.116681
-0.113138
-0.108885
-0.103791
-0.0976988
-0.0903571
-0.081441
-0.0709873
-0.059041
-0.0446759
-0.0265815
-0.00368939
0.0255162
0.06303060000000001
0.110893
0.173
0.252983
0.354378
0.480063
0.625404
0.772953
0.896232
0.978051
1.02246
1.04765
1.06955
1.09351
1.11758
1.13756
1.15036
1.15575
1.15651
1.15554
1.15397
1.15216
1.15016
1.14759
1.1445
1.14136
1.13832
1.13528
1.13224
1.12929
1.12653
1.12398
1.12172
1.11994
1.11885
1.11864
1.11814
-0.134291
-0.134403
-0.134419
-0.134253
-0.133839
-0.133123
-0.132092
-0.130754
-0.129094
-0.127107
-0.124743
-0.12192
-0.118691
-0.115037
-0.110739
-0.105596
-0.0994297
-0.091985
-0.0829525
-0.0723647
-0.0603408
-0.0459773
-0.0281154
-0.00576345
0.0227462
0.0594938
0.106344
0.16695
0.244789
0.343411
0.466193
0.609432
0.7573839999999999
0.884248
0.970872
1.01889
1.04566
1.06779
1.09173
1.11594
1.13621
1.14937
1.15499
1.15582
1.15486
1.15327
1.15146
1.14947
1.14693
1.14387
1.14075
1.13775
1.13475
1.13175
1.12884
1.12612
1.12361
1.12138
1.11963
1.11856
1.11833
1.11774
-0.00183193
-0.00487905
-0.007971010000000001
-0.0111295
-0.014375
-0.0177184
-0.021176
-0.0247591
-0.0284725
-0.0323231
-0.0363066
-0.0404129
-0.0446328
-0.0489545
-0.0533643
-0.0578272
-0.0623157
-0.06680369999999999
-0.0712618
-0.07566589999999999
-0.0799798
-0.0841794
-0.0882476
-0.0921705
-0.0959262
-0.09950489999999999
-0.10291
-0.106139
-0.109194
-0.112076
-0.114786
-0.117327
-0.119711
-0.121944
-0.124032
-0.125974
-0.127771
-0.129433
-0.130956
-0.132341
-0.133584
-0.134673
-0.135591
-0.136321
-0.136845
-0.137137
-0.137251
-0.137274
-0.137183
-0.136919
-0.136444
-0.135719
-0.134694
-0.133325
-0.131573
-0.129448
-0.126951
-0.124008
-0.120629
-0.116833
-0.112457
-0.107239
-0.100983
-0.0934695
-0.08440350000000001
-0.0737917
-0.0617072
-0.0472775
-0.0295464
-0.00758248
0.0203046
0.0562374
0.102253
0.161567
0.237389
0.333364
0.453355
0.59439
0.742259
0.872166
0.963311
1.01507
1.04362
1.06607
1.08999
1.11432
1.13488
1.14838
1.15422
1.15512
1.15417
1.15257
1.15076
1.14878
1.14627
1.14324
1.14015
1.13718
1.13422
1.13125
1.12839
1.1257
1.12323
1.12104
1.11932
1.11827
1.11801
1.11735
-0.00192628
-0.00510181
-0.008321429999999999
-0.011609
-0.0149829
-0.0184544
-0.0220413
-0.0257547
-0.0296002
-0.0335821
-0.0376964
-0.0419332
-0.0462807
-0.0507274
-0.0552599
-0.0598436
-0.0644474
-0.0690452
-0.0736088
-0.078112
-0.0825183
-0.0868042
-0.0909533
-0.0949528
-0.0987825
-0.10243
-0.105898
-0.109185
-0.11229
-0.115215
-0.11796
-0.120529
-0.122931
-0.125176
-0.127272
-0.129219
-0.131021
-0.132685
-0.134213
-0.135599
-0.136835
-0.137907
-0.138799
-0.139502
-0.139996
-0.140244
-0.140295
-0.140243
-0.140069
-0.139719
-0.139169
-0.138397
-0.137348
-0.135949
-0.134135
-0.131884
-0.129212
-0.1261
-0.122555
-0.118608
-0.114106
-0.108749
-0.102379
-0.09479940000000001
-0.08573310000000001
-0.0752047
-0.0630819
-0.048645
-0.0310663
-0.00927979
0.018132
0.0532706
0.098513
0.156683
0.230691
0.324248
0.441523
0.580254
0.727662
0.860039
0.955425
1.01102
1.04152
1.06439
1.0883
1.11273
1.13357
1.1474
1.15345
1.15443
1.15348
1.15187
1.15006
1.14809
1.1456
1.1426
1.13954
1.1366
1.13368
1.13076
1.12793
1.12529
1.12285
1.1207
1.119
1.11798
1.1177
1.11696
-0.00199791
-0.00530526
-0.0086575
-0.0120779
-0.0155841
-0.0191899
-0.0229123
-0.0267614
-0.0307464
-0.0348683
-0.039121
-0.0434954
-0.0479796
-0.0525601
-0.0572231
-0.0619349
-0.06666080000000001
-0.0713752
-0.07605099999999999
-0.0806591
-0.0851624
-0.08953709999999999
-0.093768
-0.0978421
-0.101742
-0.105455
-0.108979
-0.112319
-0.115472
-0.118441
-0.121227
-0.12383
-0.126257
-0.128522
-0.130631
-0.132586
-0.134388
-0.136046
-0.13756
-0.138919
-0.140117
-0.141147
-0.142003
-0.14267
-0.143123
-0.14332
-0.143313
-0.143214
-0.143008
-0.142616
-0.142011
-0.141175
-0.140052
-0.138572
-0.136678
-0.134323
-0.131496
-0.12823
-0.124532
-0.120427
-0.115794
-0.110335
-0.103866
-0.0961526
-0.0870039
-0.07651040000000001
-0.06434289999999999
-0.0499841
-0.0326326
-0.0109285
0.0161821
0.0506071
0.09504799999999999
0.152146
0.224573
0.315919
0.430582
0.567015
0.71365
0.848025
0.947361
1.00676
1.03937
1.06272
1.08665
1.11118
1.13228
1.14642
1.15269
1.15374
1.15279
1.15117
1.14935
1.14739
1.14494
1.14196
1.13893
1.13602
1.13314
1.13026
1.12748
1.12487
1.12248
1.12036
1.11869
1.11768
1.11738
1.11657
-0.00202854
-0.0054574
-0.00893155
-0.0124742
-0.0161048
-0.0198387
-0.0236916
-0.0276748
-0.0317952
-0.0360538
-0.0404451
-0.0449568
-0.0495771
-0.0542926
-0.0590877
-0.06393
-0.0687817
-0.0736156
-0.07840709999999999
-0.08312360000000001
-0.0877279
-0.0921954
-0.09651120000000001
-0.100663
-0.104633
-0.108407
-0.111984
-0.115368
-0.118561
-0.121567
-0.124388
-0.127025
-0.129482
-0.131773
-0.133905
-0.135881
-0.137698
-0.139361
-0.14087
-0.142213
-0.143383
-0.144375
-0.145186
-0.145809
-0.146217
-0.14637
-0.146319
-0.146184
-0.145938
-0.14549
-0.144815
-0.143894
-0.14267
-0.141077
-0.139065
-0.136613
-0.133708
-0.130366
-0.12656
-0.122281
-0.11749
-0.111971
-0.105469
-0.0976472
-0.0883602
-0.0777854
-0.065565
-0.0512289
-0.0340915
-0.0125666
0.014421
0.0482752
0.0919184
0.147976
0.218931
0.308255
0.420459
0.554642
0.700233
0.836225
0.93924
1.00233
1.03712
1.06107
1.08504
1.10966
1.13099
1.14544
1.15192
1.15305
1.1521
1.15047
1.14865
1.1467
1.14427
1.14132
1.13831
1.13544
1.1326
1.12976
1.12701
1.12445
1.1221
1.12001
1.11837
1.11738
1.11707
1.11619
-0.00205862
-0.00560246
-0.009192489999999999
-0.0128528
-0.0166029
-0.0204585
-0.0244359
-0.0285463
-0.0327965
-0.037187
-0.0417102
-0.0463547
-0.0511082
-0.0559555
-0.06088
-0.06585050000000001
-0.0708265
-0.0757794
-0.0806863
-0.0855115
-0.09021700000000001
-0.0947784
-0.0991807
-0.103411
-0.107455
-0.111294
-0.114927
-0.11836
-0.121598
-0.124644
-0.127502
-0.130172
-0.132657
-0.13497
-0.13712
-0.13911
-0.140934
-0.142591
-0.144086
-0.145407
-0.146553
-0.147518
-0.148299
-0.148889
-0.149264
-0.149385
-0.149296
-0.149102
-0.148778
-0.148244
-0.147483
-0.146458
-0.145125
-0.143426
-0.141302
-0.138766
-0.135839
-0.132484
-0.1286
-0.124172
-0.119209
-0.113568
-0.10699
-0.0991036
-0.08973929999999999
-0.07908510000000001
-0.0668588
-0.052461
-0.0353835
-0.0140904
0.0127809
0.046228
0.08916060000000001
0.144155
0.213636
0.301192
0.41116
0.543066
0.687392
0.824647
0.9310929999999999
0.997754
1.03475
1.05942
1.08348
1.10817
1.12973
1.14446
1.15116
1.15236
1.15141
1.14977
1.14794
1.146
1.14359
1.14068
1.1377
1.13486
1.13206
1.12925
1.12655
1.12403
1.12171
1.11967
1.11806
1.11708
1.11675
1.11581
-0.00210307
-0.00577676
-0.009497490000000001
-0.0132887
-0.0171699
-0.0211574
-0.0252667
-0.0295105
-0.0338973
-0.0384232
-0.0430802
-0.0478605
-0.0527484
-0.0577253
-0.06277530000000001
-0.067869
-0.072962
-0.07802530000000001
-0.0830379
-0.0879615
-0.0927569
-0.097399
-0.101873
-0.106166
-0.110268
-0.11416
-0.117838
-0.121311
-0.124584
-0.127662
-0.130549
-0.133247
-0.135759
-0.138096
-0.140267
-0.142272
-0.144104
-0.145763
-0.147253
-0.148567
-0.149704
-0.150661
-0.151424
-0.151986
-0.152325
-0.152401
-0.152235
-0.151932
-0.151499
-0.150875
-0.150028
-0.1489
-0.147451
-0.145658
-0.143475
-0.140882
-0.137918
-0.134555
-0.130638
-0.126146
-0.12106
-0.115212
-0.108413
-0.100382
-0.0909741
-0.08037279999999999
-0.068191
-0.0537361
-0.0365527
-0.0153479
0.0112678
0.0443935
0.08664819999999999
0.140592
0.208692
0.294671
0.402614
0.532214
0.675131
0.813304
0.922897
0.993014
1.03228
1.05776
1.08195
1.10671
1.12848
1.14349
1.15039
1.15167
1.15072
1.14907
1.14723
1.1453
1.14292
1.14003
1.13708
1.13427
1.13151
1.12875
1.12609
1.1236
1.12133
1.11932
1.11774
1.11678
1.11643
1.11543
-0.00213425
-0.00596296
-0.00983824
-0.0137827
-0.0178147
-0.0219534
-0.0262144
-0.0306101
-0.0351482
-0.0398218
-0.0446252
-0.0495518
-0.0545796
-0.0596892
-0.0648649
-0.0700788
-0.07528260000000001
-0.080445
-0.08554879999999999
-0.0905508
-0.0954149
-0.100116
-0.104638
-0.108971
-0.113105
-0.117028
-0.120734
-0.124229
-0.127523
-0.130619
-0.133524
-0.136242
-0.138773
-0.141124
-0.143305
-0.145321
-0.147163
-0.148834
-0.150338
-0.151665
-0.15281
-0.153764
-0.154513
-0.155053
-0.155362
-0.15539
-0.155123
-0.15469
-0.154152
-0.15344
-0.152508
-0.151295
-0.149759
-0.147894
-0.145682
-0.143048
-0.14001
-0.13658
-0.132644
-0.128148
-0.122989
-0.116947
-0.109867
-0.101609
-0.0921401
-0.08165459999999999
-0.06952899999999999
-0.0549978
-0.0376305
-0.0163712
0.009978849999999999
0.0427741
0.08430799999999999
0.137276
0.204219
0.288657
0.394605
0.522014
0.6635
0.802248
0.914676
0.988144
1.02969
1.05609
1.08045
1.10528
1.12725
1.14253
1.14963
1.15098
1.15002
1.14836
1.14652
1.1446
1.14224
1.13938
1.13646
1.13368
1.13096
1.12824
1.12562
1.12318
1.12094
1.11897
1.11742
1.11647
1.11611
1.11506
-0.00218411
-0.00616682
-0.0101942
-0.0142905
-0.0184749
-0.0227666
-0.0271815
-0.0317318
-0.0364244
-0.0412496
-0.0462028
-0.0512778
-0.0564478
-0.061693
-0.06699670000000001
-0.0723322
-0.0776478
-0.0829106
-0.0881064
-0.0931864
-0.0981201
-0.102884
-0.107455
-0.111832
-0.116005
-0.119964
-0.123701
-0.127221
-0.130534
-0.133646
-0.136564
-0.139291
-0.141825
-0.144171
-0.146339
-0.148335
-0.15016
-0.151813
-0.153299
-0.154606
-0.155728
-0.156656
-0.157382
-0.157896
-0.158165
-0.15814
-0.157823
-0.157345
-0.156748
-0.155971
-0.154979
-0.153714
-0.152132
-0.150232
-0.147991
-0.145312
-0.142168
-0.138597
-0.134578
-0.130026
-0.124772
-0.118621
-0.111357
-0.102917
-0.0934238
-0.0829423
-0.0707996
-0.0561731
-0.0386289
-0.0173208
0.00886292
0.04137
0.08224529999999999
0.134248
0.200126
0.283125
0.387131
0.512516
0.652541
0.791529
0.906501
0.983192
1.02698
1.0544
1.07899
1.10387
1.12603
1.14157
1.14886
1.15029
1.14933
1.14766
1.14581
1.14389
1.14156
1.13872
1.13583
1.13309
1.13041
1.12773
1.12515
1.12275
1.12055
1.11862
1.11709
1.11616
1.11579
1.11469
-0.00231896
-0.00644933
-0.0106222
-0.0148649
-0.0191967
-0.0236327
-0.0281916
-0.0328865
-0.037723
-0.0426896
-0.0477814
-0.0529933
-0.0582962
-0.06366570000000001
-0.0690871
-0.0745358
-0.0799557
-0.0853155
-0.09060029999999999
-0.0957585
-0.100764
-0.105595
-0.110226
-0.114656
-0.118877
-0.122881
-0.126656
-0.130207
-0.133546
-0.136676
-0.139604
-0.142334
-0.144863
-0.147193
-0.149336
-0.151303
-0.153095
-0.15471
-0.156149
-0.157405
-0.158471
-0.159345
-0.16002
-0.160487
-0.16071
-0.160643
-0.160338
-0.159889
-0.159274
-0.158459
-0.157423
-0.156109
-0.154492
-0.152581
-0.150309
-0.147565
-0.144319
-0.140619
-0.136465
-0.131754
-0.126332
-0.120105
-0.11279
-0.104303
-0.09482980000000001
-0.0842017
-0.0718751
-0.0571942
-0.0395814
-0.0183091
0.00772713
0.0400959
0.0805259
0.131576
0.196331
0.278053
0.38029
0.503721
0.642196
0.781178
0.898409
0.978142
1.02417
1.05267
1.07754
1.1025
1.12484
1.14062
1.1481
1.14959
1.14863
1.14695
1.1451
1.14319
1.14087
1.13807
1.1352
1.1325
1.12985
1.12722
1.12468
1.12232
1.12016
1.11826
1.11677
1.11586
1.11546
1.11433
-0.00247885
-0.00675194
-0.011067
-0.0154523
-0.0199252
-0.0245018
-0.0292027
-0.0340395
-0.0390164
-0.0441209
-0.0493466
-0.0546897
-0.0601181
-0.0656046
-0.0711368
-0.0766898
-0.08220470000000001
-0.0876514
-0.0930145
-0.09824140000000001
-0.103309
-0.108197
-0.112879
-0.117351
-0.121608
-0.125644
-0.129447
-0.133019
-0.136375
-0.139518
-0.142455
-0.14519
-0.147723
-0.150052
-0.152189
-0.154144
-0.155919
-0.15751
-0.158917
-0.16013
-0.161147
-0.161967
-0.162585
-0.163
-0.163193
-0.163129
-0.162848
-0.162404
-0.161765
-0.160909
-0.159818
-0.158455
-0.156798
-0.154835
-0.152489
-0.149669
-0.14637
-0.142604
-0.138312
-0.133417
-0.127804
-0.121429
-0.114111
-0.105671
-0.0961803
-0.08538129999999999
-0.0728031
-0.0580677
-0.0404592
-0.019274
0.00655956
0.0388245
0.07902000000000001
0.129302
0.192963
0.273414
0.374
0.495546
0.632405
0.771239
0.8903759999999999
0.972933
1.02125
1.05091
1.07611
1.10114
1.12365
1.13967
1.14733
1.1489
1.14793
1.14624
1.14438
1.14248
1.14018
1.13741
1.13457
1.1319
1.1293
1.1267
1.12421
1.12189
1.11977
1.11791
1.11644
1.11555
1.11514
1.11396
-0.00256764
-0.00696536
-0.0114067
-0.0159179
-0.0205173
-0.0252231
-0.030055
-0.0350242
-0.0401332
-0.0453687
-0.0507232
-0.0561918
-0.0617407
-0.0673417
-0.0729829
-0.07864
-0.0842497
-0.0897826
-0.0952245
-0.100522
-0.105654
-0.110601
-0.115333
-0.119846
-0.124137
-0.128199
-0.132023
-0.135609
-0.13897
-0.142115
-0.145053
-0.147793
-0.150337
-0.152684
-0.154837
-0.156801
-0.158573
-0.160149
-0.161534
-0.162726
-0.163724
-0.164523
-0.16512
-0.165518
-0.165711
-0.165673
-0.165404
-0.164946
-0.164277
-0.163358
-0.162203
-0.160787
-0.159056
-0.156979
-0.154516
-0.151625
-0.148311
-0.144509
-0.140109
-0.135073
-0.129304
-0.122741
-0.115347
-0.106862
-0.0972924
-0.0864161
-0.073712
-0.0589224
-0.0412991
-0.0201598
0.00556003
0.0376096
0.0775549
0.127375
0.190094
0.269159
0.368124
0.487929
0.6232529999999999
0.761803
0.882457
0.967625
1.01825
1.04914
1.07468
1.09981
1.12248
1.13873
1.14656
1.1482
1.14723
1.14552
1.14366
1.14177
1.1395
1.13675
1.13394
1.13131
1.12874
1.12619
1.12373
1.12146
1.11938
1.11755
1.11612
1.11523
1.11482
1.1136
-0.00259977
-0.00711704
-0.011678
-0.016308
-0.0210256
-0.0258498
-0.0308006
-0.0358887
-0.0411138
-0.0464659
-0.0519349
-0.0575162
-0.06317730000000001
-0.0688855
-0.0746266
-0.0803812
-0.08608159999999999
-0.0916983
-0.0972179
-0.102586
-0.107785
-0.112792
-0.11758
-0.122141
-0.126474
-0.130573
-0.134432
-0.138047
-0.141429
-0.144593
-0.147547
-0.1503
-0.152858
-0.155216
-0.157374
-0.159334
-0.161092
-0.162643
-0.163997
-0.165167
-0.166155
-0.166958
-0.16757
-0.167981
-0.168182
-0.168146
-0.167861
-0.167389
-0.166715
-0.165782
-0.164589
-0.163096
-0.161246
-0.159037
-0.156459
-0.153508
-0.150166
-0.14632
-0.141861
-0.136709
-0.130797
-0.124121
-0.116575
-0.107884
-0.09817770000000001
-0.0872744
-0.0746079
-0.0598289
-0.0422237
-0.0210817
0.00467571
0.0365462
0.0762009
0.125731
0.187674
0.265337
0.362646
0.480807
0.614758
0.7528629999999999
0.874731
0.96231
1.0152
1.04734
1.07327
1.09849
1.12133
1.13779
1.1458
1.1475
1.14653
1.14481
1.14294
1.14105
1.1388
1.13608
1.13331
1.13071
1.12818
1.12567
1.12326
1.12102
1.11898
1.11719
1.11579
1.11492
1.11449
1.11325
-0.0025894
-0.0072241
-0.0119022
-0.0166493
-0.0214839
-0.0264254
-0.0314943
-0.0367013
-0.0420431
-0.0475096
-0.0530931
-0.058788
-0.06456489999999999
-0.0703838
-0.0762251
-0.082076
-0.0878673
-0.0935687
-0.099164
-0.104598
-0.109857
-0.114921
-0.119758
-0.124358
-0.128727
-0.132859
-0.136752
-0.140401
-0.143813
-0.147005
-0.149982
-0.152751
-0.155314
-0.157666
-0.159807
-0.161742
-0.163475
-0.165004
-0.166339
-0.167493
-0.168472
-0.16928
-0.169908
-0.170328
-0.170525
-0.170469
-0.170146
-0.169647
-0.16899
-0.168087
-0.166883
-0.165323
-0.163384
-0.161082
-0.158416
-0.155413
-0.152012
-0.148086
-0.143572
-0.138316
-0.132261
-0.125484
-0.117749
-0.108807
-0.098925
-0.0880075
-0.0754508
-0.0607308
-0.0432181
-0.0220996
0.00376488
0.0356288
0.0750731
0.124274
0.185497
0.261971
0.357669
0.474217
0.606841
0.744305
0.867183
0.957
1.01208
1.0455
1.07186
1.0972
1.12019
1.13686
1.14503
1.14679
1.14582
1.14409
1.14222
1.14034
1.13811
1.13542
1.13267
1.1301
1.12762
1.12515
1.12278
1.12059
1.11859
1.11683
1.11546
1.11461
1.11417
1.11289
-0.00256723
-0.00730661
-0.0120888
-0.0169419
-0.0218836
-0.0269338
-0.0321132
-0.0374325
-0.0428854
-0.048461
-0.054157
-0.059962
-0.0658494
-0.0717758
-0.0777158
-0.0836606
-0.0895417
-0.095329
-0.100999
-0.1065
-0.111819
-0.116938
-0.121821
-0.126458
-0.130857
-0.135013
-0.138926
-0.142592
-0.146017
-0.149215
-0.152194
-0.154957
-0.157508
-0.159846
-0.161971
-0.163893
-0.165624
-0.167162
-0.168514
-0.169683
-0.170666
-0.17147
-0.172092
-0.172514
-0.172709
-0.172642
-0.172298
-0.171788
-0.171136
-0.170228
-0.168991
-0.167397
-0.165445
-0.163124
-0.160421
-0.157358
-0.153865
-0.149836
-0.145243
-0.13992
-0.133772
-0.126829
-0.118821
-0.109609
-0.0995663
-0.0886475
-0.0761598
-0.061539
-0.0441948
-0.023058
0.00300022
0.0348358
0.0741151
0.122984
0.183465
0.258998
0.353296
0.468259
0.5994390000000001
0.736076
0.859808
0.951725
1.00891
1.04363
1.07045
1.09593
1.11907
1.13593
1.14426
1.14608
1.14511
1.14337
1.14149
1.13962
1.13741
1.13475
1.13203
1.1295
1.12705
1.12463
1.1223
1.12015
1.11819
1.11647
1.11513
1.11429
1.11384
1.11254
-0.00265357
-0.00749403
-0.0123756
-0.0173279
-0.0223685
-0.027519
-0.0327993
-0.0382195
-0.0437719
-0.0494452
-0.0552382
-0.0611371
-0.0671138
-0.0731252
-0.0791442
-0.0851624
-0.0911117
-0.09696059999999999
-0.102683
-0.108228
-0.113587
-0.118741
-0.123656
-0.12832
-0.132742
-0.136919
-0.140851
-0.144533
-0.14797
-0.151175
-0.154156
-0.15692
-0.159471
-0.16181
-0.16394
-0.165874
-0.167625
-0.169192
-0.170572
-0.171764
-0.172756
-0.173546
-0.174145
-0.174544
-0.174724
-0.17465
-0.174317
-0.173822
-0.173165
-0.172227
-0.170949
-0.169328
-0.167367
-0.165051
-0.162355
-0.159232
-0.155611
-0.151504
-0.146879
-0.141522
-0.135305
-0.128182
-0.119889
-0.11043
-0.100259
-0.0892534
-0.07669910000000001
-0.0621667
-0.0449998
-0.0238396
0.0024106
0.034183
0.073333
0.121925
0.181677
0.256384
0.349479
0.462896
0.592508
0.728216
0.852634
0.946509
1.00572
1.04172
1.06905
1.09468
1.11796
1.13501
1.14348
1.14537
1.14439
1.14264
1.14076
1.1389
1.13671
1.13408
1.13139
1.12889
1.12649
1.1241
1.12182
1.11971
1.11779
1.11611
1.11479
1.11397
1.11352
1.11218
-0.00280883
-0.00775054
-0.0127334
-0.0177851
-0.0229239
-0.0281728
-0.0335506
-0.0390668
-0.0447132
-0.0504771
-0.0563561
-0.0623376
-0.06839149999999999
-0.0744727
-0.080554
-0.08662839999999999
-0.09262769999999999
-0.09852
-0.104278
-0.10985
-0.115233
-0.120405
-0.125338
-0.130019
-0.134458
-0.138651
-0.142601
-0.146304
-0.149761
-0.152983
-0.155981
-0.158763
-0.161336
-0.163701
-0.16586
-0.167825
-0.169606
-0.171199
-0.172599
-0.173806
-0.174813
-0.175616
-0.176218
-0.176606
-0.176759
-0.176659
-0.176313
-0.175808
-0.175126
-0.174143
-0.17281
-0.171132
-0.169128
-0.166801
-0.16411
-0.160935
-0.157197
-0.153021
-0.148398
-0.14304
-0.136744
-0.129481
-0.121033
-0.111461
-0.10119
-0.0900069
-0.07723679999999999
-0.0626258
-0.0455321
-0.0244743
0.00179514
0.0336932
0.07277599999999999
0.120959
0.180083
0.254048
0.346033
0.458003
0.586071
0.720774
0.84567
0.941337
1.0025
1.03977
1.06765
1.09344
1.11686
1.13409
1.14271
1.14465
1.14367
1.14191
1.14003
1.13817
1.13601
1.1334
1.13075
1.12829
1.12592
1.12358
1.12134
1.11927
1.11739
1.11575
1.11446
1.11365
1.11319
1.11184
-0.00284694
-0.007881590000000001
-0.0129566
-0.0180996
-0.0233287
-0.028666
-0.034133
-0.0397374
-0.0454688
-0.0513142
-0.0572727
-0.06332989999999999
-0.0694584
-0.0756091
-0.08175200000000001
-0.0878829
-0.0939357
-0.099879
-0.10568
-0.111293
-0.116714
-0.121921
-0.126889
-0.131602
-0.13607
-0.140292
-0.14427
-0.148004
-0.151493
-0.154745
-0.157775
-0.16059
-0.163197
-0.1656
-0.167799
-0.1698
-0.171613
-0.173233
-0.174656
-0.175888
-0.176927
-0.177772
-0.178411
-0.178811
-0.178949
-0.17882
-0.17843
-0.177858
-0.177094
-0.17603
-0.174622
-0.172872
-0.170813
-0.16845
-0.165719
-0.162488
-0.158698
-0.154456
-0.149762
-0.144371
-0.138008
-0.130629
-0.122149
-0.112626
-0.102281
-0.0909335
-0.077941
-0.0631152
-0.0459407
-0.0249662
0.00117852
0.0332759
0.07234400000000001
0.120025
0.178635
0.251936
0.342877
0.453534
0.580163
0.713775
0.838906
0.936194
0.999232
1.03778
1.06624
1.09222
1.11578
1.13317
1.14193
1.14393
1.14295
1.14118
1.13929
1.13745
1.1353
1.13273
1.1301
1.12768
1.12535
1.12305
1.12086
1.11883
1.11699
1.11538
1.11412
1.11333
1.11287
1.11149
-0.00278368
-0.007905540000000001
-0.0130683
-0.018299
-0.0236159
-0.0290408
-0.0345963
-0.0402912
-0.0461096
-0.0520406
-0.0580853
-0.0642262
-0.0704395
-0.0766718
-0.0828883
-0.0890883
-0.0952086
-0.101217
-0.107077
-0.112745
-0.118221
-0.123479
-0.128497
-0.133259
-0.137768
-0.142031
-0.146047
-0.14982
-0.153347
-0.156638
-0.159707
-0.162561
-0.165206
-0.167648
-0.169882
-0.171913
-0.17375
-0.175388
-0.176826
-0.17807
-0.179115
-0.179953
-0.18057
-0.180944
-0.181063
-0.180919
-0.180503
-0.179873
-0.179025
-0.177888
-0.176435
-0.174651
-0.172556
-0.17013
-0.167301
-0.163991
-0.160178
-0.155891
-0.151076
-0.145558
-0.139084
-0.131623
-0.123135
-0.11366
-0.103281
-0.0918233
-0.0787255
-0.06379899999999999
-0.0464554
-0.0253658
0.000720287
0.0328871
0.0719069
0.119229
0.17745
0.250075
0.340056
0.449533
0.574751
0.707197
0.832356
0.931092
0.995937
1.03577
1.06482
1.09101
1.11471
1.13225
1.14114
1.1432
1.14222
1.14044
1.13856
1.13672
1.1346
1.13205
1.12945
1.12706
1.12478
1.12253
1.12037
1.11839
1.11659
1.11502
1.11378
1.11301
1.11254
1.11114
-0.00281615
-0.008039559999999999
-0.0133041
-0.0186381
-0.0240588
-0.0295881
-0.0352477
-0.0410472
-0.0469695
-0.0530036
-0.0591507
-0.06539010000000001
-0.0716994
-0.0780238
-0.0843265
-0.0906058
-0.09680179999999999
-0.102881
-0.108804
-0.114533
-0.120064
-0.125373
-0.130439
-0.135245
-0.139795
-0.144095
-0.148146
-0.151952
-0.15551
-0.158825
-0.161913
-0.164779
-0.167432
-0.169875
-0.172108
-0.174134
-0.175961
-0.177588
-0.179013
-0.180239
-0.181253
-0.182045
-0.182614
-0.182952
-0.183046
-0.182872
-0.182411
-0.181744
-0.180865
-0.179687
-0.178206
-0.176418
-0.174311
-0.171829
-0.16891
-0.165526
-0.161657
-0.157296
-0.152372
-0.146707
-0.140091
-0.132567
-0.124055
-0.114485
-0.103989
-0.0924652
-0.0794517
-0.064543
-0.0470725
-0.0258237
0.00038365
0.0325812
0.07148690000000001
0.118559
0.17651
0.248423
0.337573
0.446032
0.569789
0.7009919999999999
0.826043
0.926068
0.992627
1.03372
1.06337
1.0898
1.11364
1.13133
1.14035
1.14246
1.14149
1.1397
1.13781
1.13598
1.13389
1.13137
1.12881
1.12645
1.12421
1.122
1.11988
1.11795
1.11618
1.11465
1.11345
1.11269
1.11222
1.1108
-0.00293961
-0.00828105
-0.0136629
-0.0191129
-0.0246488
-0.0302939
-0.0360703
-0.0419849
-0.0480203
-0.0541655
-0.0604197
-0.06676310000000001
-0.073172
-0.0795926
-0.08598600000000001
-0.0923493
-0.0986255
-0.104779
-0.110772
-0.116565
-0.122155
-0.127518
-0.132634
-0.137485
-0.142072
-0.146406
-0.150485
-0.154313
-0.157888
-0.161212
-0.164297
-0.167152
-0.169783
-0.1722
-0.174403
-0.176397
-0.178193
-0.179792
-0.181187
-0.182375
-0.183349
-0.184099
-0.184629
-0.184935
-0.185007
-0.184805
-0.184299
-0.183589
-0.182677
-0.181444
-0.179905
-0.178081
-0.175921
-0.173375
-0.170423
-0.167027
-0.163121
-0.158666
-0.153631
-0.147869
-0.141166
-0.133518
-0.124928
-0.11523
-0.10451
-0.0928621
-0.08002099999999999
-0.0651404
-0.0475936
-0.0263423
9.972829999999999e-06
0.0323757
0.0712093
0.118003
0.175666
0.246888
0.335369
0.442922
0.565205
0.695147
0.820006
0.9211780000000001
0.989336
1.03163
1.0619
1.0886
1.11257
1.13041
1.13955
1.14172
1.14075
1.13895
1.13707
1.13525
1.13317
1.13068
1.12815
1.12584
1.12364
1.12147
1.1194
1.1175
1.11578
1.11428
1.11311
1.11237
1.11189
1.11046
-0.00301948
-0.00848024
-0.0139818
-0.0195493
-0.0252026
-0.0309647
-0.0368577
-0.0428892
-0.0490374
-0.0552928
-0.0616548
-0.06810430000000001
-0.0746173
-0.08113960000000001
-0.08763
-0.09408370000000001
-0.100448
-0.106683
-0.112751
-0.118614
-0.124267
-0.129686
-0.134853
-0.139748
-0.144369
-0.148728
-0.152825
-0.156663
-0.160243
-0.163567
-0.166649
-0.169498
-0.172121
-0.174528
-0.17672
-0.178699
-0.180477
-0.182057
-0.183428
-0.184588
-0.185531
-0.186245
-0.186727
-0.186986
-0.187019
-0.186786
-0.186252
-0.185497
-0.18452
-0.183216
-0.181609
-0.179702
-0.177427
-0.174782
-0.17179
-0.168393
-0.164479
-0.159961
-0.154804
-0.148967
-0.14225
-0.134457
-0.125704
-0.115915
-0.105042
-0.0932202
-0.080402
-0.06554690000000001
-0.0479623
-0.0267613
-0.00041052
0.0321481
0.071025
0.117647
0.174985
0.245567
0.333426
0.440059
0.5609459999999999
0.689655
0.814248
0.91645
0.986096
1.02951
1.06041
1.0874
1.11152
1.12948
1.13874
1.14097
1.14
1.1382
1.13632
1.13451
1.13246
1.13
1.1275
1.12522
1.12306
1.12093
1.11891
1.11705
1.11537
1.11391
1.11277
1.11204
1.11156
1.11012
-0.00305226
-0.00863304
-0.0142532
-0.0199396
-0.0257114
-0.0315922
-0.0376041
-0.0437527
-0.0500166
-0.0563863
-0.062861
-0.0694198
-0.0760386
-0.0826659
-0.0892558
-0.0958005
-0.102252
-0.108568
-0.114709
-0.120638
-0.126349
-0.131816
-0.137026
-0.141954
-0.1466
-0.150975
-0.155081
-0.158922
-0.162502
-0.165825
-0.168902
-0.171749
-0.174373
-0.17678
-0.178974
-0.180956
-0.182735
-0.184311
-0.185674
-0.186824
-0.187756
-0.188464
-0.188944
-0.189193
-0.189196
-0.188914
-0.188326
-0.187516
-0.186469
-0.185095
-0.183421
-0.181424
-0.179035
-0.176263
-0.173157
-0.169687
-0.165729
-0.161131
-0.155839
-0.149904
-0.14317
-0.135288
-0.126329
-0.116461
-0.105562
-0.0936249
-0.0807049
-0.0658764
-0.0482403
-0.0269457
-0.000717833
0.031741
0.07072050000000001
0.11752
0.174622
0.244673
0.331801
0.437398
0.557016
0.684474
0.808714
0.911866
0.982898
1.02736
1.05893
1.08621
1.11047
1.12855
1.13793
1.14021
1.13925
1.13745
1.13557
1.13377
1.13174
1.12931
1.12685
1.1246
1.12248
1.1204
1.11842
1.11661
1.11497
1.11354
1.11242
1.11172
1.11124
1.10978
-0.00313684
-0.00883578
-0.0145736
-0.0203779
-0.0262664
-0.032265
-0.038395
-0.0446597
-0.0510392
-0.0575225
-0.0641089
-0.0707759
-0.077498
-0.0842242
-0.09090520000000001
-0.0975326
-0.104062
-0.110446
-0.116647
-0.12263
-0.128385
-0.133889
-0.139126
-0.144077
-0.148737
-0.15312
-0.157229
-0.161071
-0.164651
-0.167972
-0.171047
-0.173891
-0.176514
-0.178924
-0.181123
-0.183111
-0.184893
-0.186472
-0.187833
-0.188979
-0.189915
-0.190642
-0.191147
-0.19141
-0.191405
-0.191091
-0.190468
-0.18963
-0.188562
-0.18716
-0.185426
-0.18335
-0.180863
-0.177943
-0.174656
-0.171029
-0.166955
-0.162227
-0.156793
-0.150718
-0.143863
-0.135924
-0.126851
-0.116937
-0.106047
-0.09397419999999999
-0.0809193
-0.06616900000000001
-0.048405
-0.0268793
-0.000826947
0.03122
0.07024179999999999
0.117458
0.174547
0.244246
0.330575
0.435026
0.553389
0.679604
0.803436
0.907434
0.979724
1.02521
1.05745
1.08501
1.10942
1.12762
1.13711
1.13945
1.13849
1.13669
1.13481
1.13302
1.13102
1.12862
1.12619
1.12398
1.12191
1.11987
1.11793
1.11616
1.11456
1.11317
1.11208
1.11139
1.11091
1.10944
-0.00319688
-0.00901953
-0.0148798
-0.0208066
-0.026816
-0.0329336
-0.0391819
-0.0455638
-0.0520574
-0.058652
-0.0653474
-0.07211910000000001
-0.07894
-0.0857594
-0.09252580000000001
-0.0992285
-0.105825
-0.112269
-0.11852
-0.124548
-0.13034
-0.135872
-0.141132
-0.146101
-0.150776
-0.155168
-0.159285
-0.163133
-0.166721
-0.17005
-0.17313
-0.17598
-0.178609
-0.181025
-0.183228
-0.18521
-0.186977
-0.18854
-0.189892
-0.191034
-0.191972
-0.192696
-0.193192
-0.19344
-0.193428
-0.193135
-0.192549
-0.191732
-0.190683
-0.189306
-0.187557
-0.185415
-0.18283
-0.179777
-0.176308
-0.172468
-0.168168
-0.163248
-0.15767
-0.151428
-0.14443
-0.136504
-0.127467
-0.11749
-0.106516
-0.094262
-0.0810317
-0.06630320000000001
-0.0484243
-0.0267093
-0.000815424
0.030806
0.06976839999999999
0.117285
0.174597
0.244173
0.329726
0.432974
0.550057
0.6750699999999999
0.798427
0.903118
0.976539
1.02305
1.05595
1.08382
1.10838
1.12669
1.13628
1.13868
1.13773
1.13592
1.13405
1.13228
1.1303
1.12793
1.12553
1.12336
1.12133
1.11933
1.11743
1.11571
1.11415
1.1128
1.11174
1.11107
1.11059
1.10911
-0.00314798
-0.00908074
-0.0150516
-0.0210882
-0.0272073
-0.033435
-0.0397947
-0.0462872
-0.0528897
-0.0595933
-0.0663955
-0.0732703
-0.0801896
-0.08710660000000001
-0.0939646
-0.100747
-0.107422
-0.113937
-0.120253
-0.126343
-0.132191
-0.137774
-0.143079
-0.148093
-0.152808
-0.157235
-0.161383
-0.165258
-0.16887
-0.172219
-0.175316
-0.178174
-0.180804
-0.183212
-0.185398
-0.187355
-0.189091
-0.190622
-0.191947
-0.193066
-0.193978
-0.194672
-0.195138
-0.195367
-0.19536
-0.195109
-0.194567
-0.193756
-0.192701
-0.191322
-0.189549
-0.187337
-0.184678
-0.181562
-0.17799
-0.173956
-0.169394
-0.164255
-0.158499
-0.152088
-0.144999
-0.137119
-0.128142
-0.118104
-0.107019
-0.09466720000000001
-0.08123320000000001
-0.0662314
-0.0483171
-0.0266495
-0.000782308
0.0306212
0.069481
0.11711
0.174709
0.244338
0.329082
0.431046
0.546982
0.670839
0.793586
0.898832
0.973326
1.02087
1.05445
1.08262
1.10734
1.12577
1.13545
1.1379
1.13696
1.13515
1.13328
1.13153
1.12957
1.12724
1.12487
1.12274
1.12075
1.11879
1.11694
1.11526
1.11374
1.11242
1.11139
1.11074
1.11026
1.10877
-0.00320432
-0.009235180000000001
-0.0153045
-0.0214392
-0.0276573
-0.0339865
-0.0404492
-0.0470458
-0.0537509
-0.0605556
-0.0674587
-0.0744331
-0.0814488
-0.08845989999999999
-0.09540559999999999
-0.102269
-0.109021
-0.115608
-0.121989
-0.12814
-0.134043
-0.139676
-0.145026
-0.150082
-0.154835
-0.159294
-0.163468
-0.167363
-0.170988
-0.174347
-0.177445
-0.180295
-0.182908
-0.18529
-0.187445
-0.189375
-0.191092
-0.192614
-0.193939
-0.195059
-0.195971
-0.196663
-0.197126
-0.197352
-0.197345
-0.197092
-0.196532
-0.195695
-0.194606
-0.193171
-0.191314
-0.188995
-0.186251
-0.183104
-0.17949
-0.175335
-0.170631
-0.165356