/*--------------------------------*- C++ -*----------------------------------*\
| =========                 |                                                 |
| \\      /  F ield         | OpenFOAM: The Open Source CFD Toolbox           |
|  \\    /   O peration     | Version:  v1812                                 |
|   \\  /    A nd           | Web:      www.OpenFOAM.com                      |
|    \\/     M anipulation  |                                                 |
\*---------------------------------------------------------------------------*/
FoamFile
{
    version     2.0;
    format      ascii;
    class       volVectorField;
    location    "1000";
    object      U;
}
// * * * * * * * * * * * * * * * * * * * * * * * * * * * * * * * * * * * * * //

dimensions      [0 1 -1 0 0 0 0];


internalField   nonuniform List<vector> 
11031
(
(-0.1234862565034382 0.06204689271069169 3.855734337311326e-15)
(-0.1225232660349966 0.06218260586319523 3.846071949819137e-15)
(-0.1213792016833764 0.06228429735385448 3.833177238110999e-15)
(-0.1200396290677922 0.06234913990353464 3.818421412022363e-15)
(-0.1184883219705026 0.06237372057092666 3.801105078578818e-15)
(-0.1167070636374677 0.06235394683507707 3.781181036429227e-15)
(-0.1146754055336924 0.06228492722060563 3.755442859452657e-15)
(-0.1123703710629227 0.06216081838562305 3.733302341567649e-15)
(-0.1097660843519811 0.06197462708204598 3.705565624532081e-15)
(-0.1068332925178172 0.06171794978001317 3.674857708798433e-15)
(-0.1035387295924958 0.06138062385087602 3.637932201688034e-15)
(-0.09984423419117243 0.06095024971888362 3.602211995604145e-15)
(-0.09570546699585565 0.06041151918327711 3.569254704752752e-15)
(-0.09106995002389459 0.05974524346611653 3.528682160990801e-15)
(-0.08587390937989288 0.05892690133004615 3.490902141414189e-15)
(-0.08003692192871795 0.05792439767915398 3.441933954057032e-15)
(-0.07345236718646024 0.05669448220733082 3.394748666039658e-15)
(-0.06596952898583566 0.05517675191830197 3.346611639346567e-15)
(-0.05735827782541933 0.05328284504643691 3.297372026185642e-15)
(-0.04723451055591563 0.05087681082087755 3.250862961236255e-15)
(-0.03489391527780783 0.04774856493507178 3.195139322014695e-15)
(-0.01908003933367712 0.04357093471714303 3.150384826787282e-15)
(0.002191736814745516 0.03789042020343941 3.068458694450599e-15)
(0.03194682247082625 0.03016139991852895 2.957775198169516e-15)
(0.07487598689999429 0.01976815155146781 2.80490301874554e-15)
(0.1378012955361226 0.00608663041120469 2.54804854004082e-15)
(0.2295376437346237 -0.01104213576232756 2.153031190982422e-15)
(0.361802822608997 -0.03084031281332935 1.634961795349105e-15)
(0.5437082995429272 -0.04793886985721886 9.93233830779344e-16)
(0.7520816542045859 -0.05694433488863754 4.531161792537495e-16)
(0.927194621239657 -0.06068315113748032 2.160473250895316e-16)
(1.030386149557497 -0.06475201960310373 2.719728058495943e-16)
(1.076705383298069 -0.06978079366717886 4.158547054940323e-16)
(1.102943694517208 -0.073388560249339 4.345616489620969e-16)
(1.129489652780498 -0.07498195307457506 1.543835580618655e-16)
(1.157004466252353 -0.07549230330878855 -5.569198695068395e-16)
(1.17994282491777 -0.07536949095596493 -1.542118552446169e-15)
(1.194288109004032 -0.07460083728159074 -2.069183341217799e-15)
(1.199616440480307 -0.07324297301969916 -1.132200022510008e-15)
(1.198976712813848 -0.07136489047266997 1.751674360486539e-15)
(1.196369937243159 -0.06895564276384317 6.247472701603383e-15)
(1.193966330777575 -0.0660839977756728 1.132237579423218e-14)
(1.191892870990283 -0.06287298244706084 1.542970411463954e-14)
(1.189680792364074 -0.05943162153164923 1.733685214192532e-14)
(1.187134198233878 -0.0557591326447136 1.718410851446876e-14)
(1.184284306652667 -0.05192858256112753 1.583476480400297e-14)
(1.181197074746111 -0.04790684408439436 1.382277613179818e-14)
(1.17794179083124 -0.04384698075513097 1.128795562903867e-14)
(1.174559795247577 -0.03963427150174974 8.419326661171018e-15)
(1.171162516721457 -0.03553525385657291 5.502408370920684e-15)
(1.167678107537867 -0.03126557915030691 2.528016912610255e-15)
(1.164342202665347 -0.0272950914675802 -2.183785472639163e-16)
(1.160881176467282 -0.02302817606159152 -1.702332116920787e-15)
(1.154982606087101 -0.01895609807764493 -1.591584392983885e-15)
(1.141372763507134 -0.01398296246823305 -7.806728525384194e-16)
(1.12371672547678 -0.009420711103983332 -2.509403005699849e-16)
(1.110731650319148 -0.005397399467388489 -6.454350748390806e-17)
(1.119430116513425 -0.003971857491053584 -3.774049041757731e-17)
(-0.1271269910305286 0.06114807706612159 3.887398295117848e-15)
(-0.126478780719925 0.06134478868613535 3.884445922395435e-15)
(-0.1256724907511975 0.0615125657535051 3.876305027510396e-15)
(-0.1246967172339543 0.0616495774073491 3.863897756867117e-15)
(-0.1235385545729804 0.0617535430231451 3.852337208444434e-15)
(-0.1221834544277173 0.06182167429170243 3.83675324804442e-15)
(-0.1206150562762395 0.06185060175926025 3.81830219923823e-15)
(-0.118814983828705 0.06183628173443129 3.801327591962473e-15)
(-0.1167625986558625 0.0617738779398817 3.775396350455759e-15)
(-0.1144346980721389 0.06165761002231378 3.749188384326882e-15)
(-0.1118051375374743 0.06148055755138995 3.720000688260274e-15)
(-0.1088443465182646 0.06123440280889255 3.688113695838186e-15)
(-0.1055186872903435 0.06090908725747251 3.654375174278993e-15)
(-0.1017895718106537 0.06049234297763369 3.621899802978493e-15)
(-0.09761218944877131 0.05996903777515347 3.578496186387056e-15)
(-0.09293358218225158 0.05932023412900597 3.537886319525821e-15)
(-0.08768958087454613 0.05852179484307106 3.495196096877523e-15)
(-0.0817996736820321 0.05754224962156226 3.446057153913924e-15)
(-0.07515796681216 0.05633942240305255 3.401488047947981e-15)
(-0.06761645486124071 0.05485486759956981 3.353025658281431e-15)
(-0.05895246393902041 0.0530040379793149 3.303841426624212e-15)
(-0.04880127122616173 0.05065799702052057 3.260221845802928e-15)
(-0.03650395154876929 0.04761891775537168 3.196767795972949e-15)
(-0.02087370466331483 0.04357999255149992 3.146529741705041e-15)
(-1.434772555501261e-05 0.03810561597874394 3.066785900264605e-15)
(0.02894294113184262 0.03067642405754747 2.97768464430961e-15)
(0.07042671476738512 0.02070958429427474 2.820449156774916e-15)
(0.1310018162913746 0.007494479847059148 2.587676311598418e-15)
(0.2191017868467025 -0.009056000708817773 2.223787825742585e-15)
(0.3456605102339586 -0.02860093947337805 1.709754730805031e-15)
(0.5213071595949297 -0.04636980938121371 1.087487847129291e-15)
(0.7289258357743927 -0.05640435090805798 5.065433742180422e-16)
(0.9111055202045979 -0.06045937696443813 2.362015644281487e-16)
(1.023120677814088 -0.06432176489558318 2.596954673682099e-16)
(1.074223890409404 -0.06929977570577676 4.046572954503204e-16)
(1.101305635359835 -0.07310772057558607 4.374892519912327e-16)
(1.127576153876223 -0.07487608635394503 1.782345685025894e-16)
(1.155177235842185 -0.07546983764551848 -4.969270111669753e-16)
(1.178575292458701 -0.07540994444369239 -1.478942736615417e-15)
(1.193454246049237 -0.07470285769613751 -2.049845982037207e-15)
(1.199168210543127 -0.07339381840302078 -1.191296061803317e-15)
(1.198674566691285 -0.07155521871204559 1.622774528409804e-15)
(1.196045879865379 -0.06918205430187123 6.082146845507531e-15)
(1.193585316939947 -0.06634049516646744 1.117966307338397e-14)
(1.191484561760331 -0.06315068322492563 1.534858648357602e-14)
(1.189269579296021 -0.05972326511284851 1.733089124840791e-14)
(1.186727530216557 -0.05605796749604235 1.721751291298165e-14)
(1.183885307637566 -0.05222857489248148 1.588641348418141e-14)
(1.180808667051673 -0.04820092626114444 1.386425381826583e-14)
(1.177567680135255 -0.04412990457359635 1.133401770398621e-14)
(1.174201965990492 -0.03989955377246052 8.456592891008858e-15)
(1.170824083395633 -0.03577955711772116 5.53466349414525e-15)
(1.16735956507189 -0.0314826795620117 2.561521542709127e-15)
(1.164045084374962 -0.02748418540616782 -1.927562483578873e-16)
(1.16060377615654 -0.02318190555849756 -1.686172800759755e-15)
(1.154730259680306 -0.01908145360334361 -1.579084754597215e-15)
(1.141140007462206 -0.0140611106321961 -7.773068836079207e-16)
(1.123516004277478 -0.009466074880292615 -2.499520026086673e-16)
(1.110595521172118 -0.005383535997627828 -6.66922826406212e-17)
(1.119203643550954 -0.003899416820002399 -4.425189094416201e-17)
(-0.1302132818397583 0.06011579751178139 3.913553974618661e-15)
(-0.1298437542547112 0.06036396876037591 3.913034874232152e-15)
(-0.1293338748322851 0.06058649465955449 3.908661556724633e-15)
(-0.128674845360749 0.06078234621942435 3.904325492532386e-15)
(-0.1278565722081583 0.06095012916891573 3.896186550432229e-15)
(-0.126867567867318 0.06108804903787705 3.885050856290262e-15)
(-0.1256948311104386 0.06119386567598844 3.874074275094578e-15)
(-0.1243237026309614 0.06126483516676223 3.855027818730273e-15)
(-0.1227376919362071 0.06129763625667666 3.83943599146864e-15)
(-0.1209182693817267 0.06128827738038016 3.815475269119852e-15)
(-0.1188446145533067 0.06123197878826293 3.792217880027048e-15)
(-0.1164933080667181 0.06112302201021842 3.765981294115141e-15)
(-0.1138379472025979 0.06095455553179277 3.735611482272294e-15)
(-0.1108486547988945 0.06071834043317197 3.702953206799051e-15)
(-0.1074914320856796 0.06040441172679471 3.668481189888773e-15)
(-0.1037272733193559 0.06000061829035917 3.630961305049387e-15)
(-0.09951090098978604 0.05949198316720494 3.590259259584042e-15)
(-0.0947888711227895 0.05885979026928 3.551703192163551e-15)
(-0.08949659025581273 0.05808024155022789 3.500112494191263e-15)
(-0.08355337667083619 0.05712242011853632 3.453525031906144e-15)
(-0.07685386449671579 0.05594510121155852 3.408131072164635e-15)
(-0.069252290281198 0.05449155588680135 3.357767587495431e-15)
(-0.06053231020282369 0.05268052144947903 3.307883571356858e-15)
(-0.05034554363909847 0.05038937557421558 3.257637931083545e-15)
(-0.03807350504172759 0.04743126562779264 3.206351906932309e-15)
(-0.0225959960504643 0.04351816940946332 3.149516262276241e-15)
(-0.002097717073552872 0.03823364352931533 3.086681048039621e-15)
(0.026153169276417 0.03108273441403192 2.985229753279761e-15)
(0.06633780918843295 0.02151476011241817 2.844256548635553e-15)
(0.1247982682389517 0.008788692052627629 2.624086883836666e-15)
(0.2096453834038563 -0.007230982366415943 2.27671203632244e-15)
(0.3310185284734481 -0.02646314647575528 1.787194918513193e-15)
(0.5004321567449483 -0.04475437426065379 1.171456715575174e-15)
(0.7063031296729753 -0.05580482635451216 5.805062364924703e-16)
(0.8945444267767343 -0.06026749382151834 2.55200528582763e-16)
(1.015259006207056 -0.06395856952688427 2.505380830074334e-16)
(1.071541369135112 -0.06885075590969408 3.911796480093846e-16)
(1.099735355277947 -0.07283112654565199 4.40250590142215e-16)
(1.125752343482122 -0.07477508764034188 2.088684253651311e-16)
(1.153389893957421 -0.07545542489463332 -4.457819180612642e-16)
(1.177215974774428 -0.07545667625162947 -1.421750851508817e-15)
(1.192616074207115 -0.07480906465010076 -2.03066912068895e-15)
(1.198714806459077 -0.07354749698391157 -1.244524005404935e-15)
(1.198372132422646 -0.07174663941275256 1.502132919485668e-15)
(1.195724845064963 -0.06940772421548243 5.933031435356809e-15)
(1.193206806087057 -0.06659503425902491 1.104268264954777e-14)
(1.191076878518138 -0.06342570540908021 1.527245724595937e-14)
(1.188857634265946 -0.06001172118943937 1.732207513619128e-14)
(1.186319324107898 -0.05635321790490436 1.724817867342092e-14)
(1.183484201471289 -0.0525247721054347 1.592385656074733e-14)
(1.180417736434515 -0.04849110515262923 1.39116610637233e-14)
(1.177190797159717 -0.04440897667283399 1.137914503871877e-14)
(1.173841263250639 -0.04016104900340906 8.497912249691051e-15)
(1.170482771964631 -0.03602028012535687 5.571911334562286e-15)
(1.167038244379569 -0.03169634553253811 2.593474632131302e-15)
(1.163745308173664 -0.02767014095373617 -1.720736613411732e-16)
(1.160323825344375 -0.02333266053801976 -1.671786868261333e-15)
(1.1544747875083 -0.01920416241748315 -1.571114865600772e-15)
(1.140903840259675 -0.01413700860182009 -7.724552430637477e-16)
(1.123312080158812 -0.009509904123950677 -2.509151795274579e-16)
(1.110456220892317 -0.005370175072203634 -6.995338667781067e-17)
(1.118979297873008 -0.00383067604996389 -4.104251728589351e-17)
(-0.001575375786750335 0.000655762326055728 4.885844378614621e-17)
(-0.004747460328963779 0.001975938558351124 1.47247828934406e-16)
(-0.007963503443619062 0.003315218907159665 2.465431662326502e-16)
(-0.01124710745747261 0.004683383272379669 3.473550680275361e-16)
(-0.01462249720910597 0.006090496619175659 4.500210315887182e-16)
(-0.01811459150048203 0.007546993512029566 5.572657546513948e-16)
(-0.02174901643906163 0.00906364578387433 6.673739506473076e-16)
(-0.02555194215535832 0.01065147675165003 7.839815861238198e-16)
(-0.0295496086915147 0.01232156634172253 9.04124058997273e-16)
(-0.03376733158676301 0.01408464229733563 1.031263498787117e-15)
(-0.03822767261520071 0.01595032182545604 1.164375281026081e-15)
(-0.04294737929125966 0.01792583823404811 1.303775900654646e-15)
(-0.04793274673330708 0.02001410708699369 1.45173140581373e-15)
(-0.05317345008463716 0.02221114972913677 1.608272628831998e-15)
(-0.05863587359978045 0.02450329952407664 1.769850498556569e-15)
(-0.06425843812862135 0.02686523352961474 1.937540087195059e-15)
(-0.06995244307908162 0.02926029969321716 2.105050737933816e-15)
(-0.07561078760920986 0.0316441341760359 2.270402531090685e-15)
(-0.08112308705528413 0.03397095861724368 2.432127241920546e-15)
(-0.08639175435459132 0.03620029497923515 2.584107631297969e-15)
(-0.09134324642315508 0.03830167383738731 2.728694053689754e-15)
(-0.0959320297187094 0.04025630829366679 2.86209764033338e-15)
(-0.1001385143020247 0.04205624969286104 2.982030643950589e-15)
(-0.103963724401692 0.04370217822964391 3.091222213615861e-15)
(-0.1074230889132631 0.04520082260298088 3.190469047399111e-15)
(-0.1105407763956708 0.04656260340692945 3.277915083651299e-15)
(-0.1133451979545692 0.04779976119107387 3.358303802972364e-15)
(-0.1158657877614529 0.04892501586058167 3.428949976375857e-15)
(-0.1181309088195553 0.04995069474517552 3.492040945162469e-15)
(-0.1201666380506474 0.05088822737390967 3.549647013066505e-15)
(-0.1219961785177217 0.05174790215586678 3.599934485666857e-15)
(-0.1236396824356506 0.05253879490361612 3.645024894320378e-15)
(-0.125114319692827 0.05326880031608367 3.685749043578515e-15)
(-0.1264344763976273 0.05394471825809024 3.72229144024384e-15)
(-0.1276120085207825 0.05457236356619279 3.754572777525278e-15)
(-0.1286565054798141 0.05515668050549765 3.785233113322378e-15)
(-0.1295755385604148 0.05570185139352953 3.813087118546147e-15)
(-0.1303748818629812 0.05621139421835305 3.834244426967211e-15)
(-0.1310587010485998 0.05668824726438224 3.856500612673578e-15)
(-0.1316297093950511 0.05713484052721952 3.874864691447951e-15)
(-0.1320892928539512 0.05755315459217059 3.889691039152282e-15)
(-0.1324376066431387 0.05794476802983164 3.904114454742693e-15)
(-0.1326736461484373 0.05831089443040596 3.915135848405722e-15)
(-0.1327952946883274 0.05865241011268169 3.92360056880812e-15)
(-0.1327993503076938 0.0589698733783333 3.929932854293883e-15)
(-0.13268153334018 0.05926353597733291 3.933388288543955e-15)
(-0.1324364759441188 0.05953334720611483 3.93506881930711e-15)
(-0.1320576943452551 0.05977895083773185 3.935783214285037e-15)
(-0.1315375440284665 0.05999967484359332 3.931340266640783e-15)
(-0.1308671575479632 0.06019451357274466 3.925579497278751e-15)
(-0.1300363641487041 0.06036210177724428 3.917165705235477e-15)
(-0.1290335897113423 0.06050067948445712 3.906114575097828e-15)
(-0.12784573480145 0.06060804626936865 3.892341081131537e-15)
(-0.1264580276719461 0.06068150290313927 3.875874711229638e-15)
(-0.1248538477752223 0.06071777757032104 3.856916107345247e-15)
(-0.1230145135625908 0.06071293276106169 3.835400461675164e-15)
(-0.1209190256881863 0.06066224742948812 3.809763098768682e-15)
(-0.1185437526609586 0.0605600668064253 3.78056464905247e-15)
(-0.1158620394877468 0.06039960899967962 3.752036913869383e-15)
(-0.1128437091686011 0.06017271258601069 3.718472757466397e-15)
(-0.1094544088248084 0.05986950173883226 3.68592556384393e-15)
(-0.1056547207862928 0.05947793326489215 3.646929668275311e-15)
(-0.1013989027708044 0.05898317005734512 3.602457326428668e-15)
(-0.09663301816370823 0.05836669217371166 3.558621006808589e-15)
(-0.09129202268670708 0.05760499947721324 3.51292562923502e-15)
(-0.08529499401356981 0.05666765997504361 3.46499043562328e-15)
(-0.07853692388626315 0.05551428156552003 3.418394992338339e-15)
(-0.07087389027667135 0.05408963248286795 3.364533220999792e-15)
(-0.06209492014762996 0.05231530011636944 3.312904146952698e-15)
(-0.05186551746928256 0.05007434511490029 3.268425483959381e-15)
(-0.03960298385878019 0.04718964596789177 3.203059738738479e-15)
(-0.02425022149347335 0.04339074089517848 3.152564837924394e-15)
(-0.004067824110023823 0.03828145406031096 3.075793093526906e-15)
(0.02355449734967686 0.0313887882609752 2.998904161104414e-15)
(0.06256962651815559 0.02219138783089303 2.864817732202036e-15)
(0.1191193158070583 0.009964566646488999 2.652364147304567e-15)
(0.2010533878308359 -0.005571193370527575 2.326866334091032e-15)
(0.317747725070712 -0.02444190641916761 1.858993459835739e-15)
(0.4810702334272884 -0.0431171251361991 1.255425073503308e-15)
(0.6843625021820809 -0.0551448214239289 6.457685079130212e-16)
(0.877645649044636 -0.06009614382707099 2.736207686908064e-16)
(1.006828932039413 -0.06365907830563566 2.451251408198943e-16)
(1.068631327038335 -0.06843823390128524 3.76732701351647e-16)
(1.098216192999672 -0.07256184987066573 4.410653144679351e-16)
(1.124018500897021 -0.07467933721232436 2.244335163466812e-16)
(1.151646236724225 -0.07544921212479073 -4.077671227682176e-16)
(1.175867338626732 -0.07551013237077224 -1.36766770387536e-15)
(1.191774879299049 -0.07491987237444034 -2.014348459311376e-15)
(1.198256508378962 -0.07370435899367578 -1.298834043388715e-15)
(1.198069047050945 -0.07193951298148717 1.376600976492653e-15)
(1.195406429764384 -0.06963298157212809 5.7798478803957e-15)
(1.19283060839472 -0.06684786581268926 1.090338116010406e-14)
(1.190669764336978 -0.06369823204547097 1.519007513125446e-14)
(1.188444938551566 -0.06029712643503995 1.731709134025754e-14)
(1.18590957867255 -0.05664498200178571 1.72830135706664e-14)
(1.183081004111642 -0.05281723835199301 1.596256529805543e-14)
(1.180024311530124 -0.04877741823289247 1.395232791262148e-14)
(1.17681117648783 -0.04468421439010638 1.142187774520207e-14)
(1.173477723960104 -0.04041876200116911 8.538980436976435e-15)
(1.170138617851326 -0.03625741854648305 5.606981026810755e-15)
(1.166714177999559 -0.03190657033257794 2.625542151912318e-15)
(1.163442900705855 -0.02785294918667085 -1.407205900347651e-16)
(1.160041346636925 -0.02348043690969003 -1.660249329133631e-15)
(1.154216210333778 -0.01932421982146821 -1.56554373269976e-15)
(1.140664282739291 -0.01421065459339895 -7.68032622275665e-16)
(1.123105012011201 -0.009552215478819652 -2.44451297791283e-16)
(1.110313895782815 -0.005357192742736243 -6.692717163770328e-17)
(1.118756819886247 -0.003765385461105842 -4.07690847121576e-17)
(-0.001622896651428502 0.00065715597723622 5.004721619704856e-17)
(-0.004890580435425534 0.001980160398164912 1.510522461955682e-16)
(-0.008203493675746373 0.003322301052105324 2.528983610184123e-16)
(-0.01158593988198958 0.004693381172695518 3.564369244584708e-16)
(-0.01506285779689812 0.006103483901605391 4.620152937934531e-16)
(-0.01865988810346491 0.007563055915796585 5.713685159878237e-16)
(-0.02240337180469444 0.009082870481322364 6.84480401917254e-16)
(-0.02632015513529343 0.01067393115613885 8.016610540741899e-16)
(-0.03043705419424595 0.01234725736365049 9.250191112261706e-16)
(-0.03477975179058052 0.01411344263977264 1.055125138586717e-15)
(-0.03937079026638252 0.01598184465326546 1.191681449603371e-15)
(-0.04422624767494878 0.01795923939681124 1.336012882270595e-15)
(-0.04935076792837052 0.02004780476175475 1.488338092012195e-15)
(-0.05473108683429551 0.02224248872255886 1.647475563643348e-15)
(-0.06032928890973334 0.02452826070276825 1.810723331843389e-15)
(-0.06607856831393702 0.02687837099163716 1.977567752476336e-15)
(-0.07188511463268797 0.02925509163242935 2.144417310431053e-15)
(-0.07763815361915775 0.03161377127704851 2.309040518777418e-15)
(-0.08322596506259652 0.03390932869591308 2.469162104120742e-15)
(-0.0885519638671054 0.03610278698381587 2.620818942897133e-15)
(-0.09354519751970547 0.03816555161688569 2.759708533622331e-15)
(-0.0981633581834935 0.04008065299488441 2.891885528471464e-15)
(-0.1023899813494545 0.04184162706270163 3.011322694815516e-15)
(-0.1062287226534044 0.04345020586765193 3.119897325652426e-15)
(-0.1096970379344498 0.04491376191203812 3.217791099242262e-15)
(-0.1128205695370039 0.04624303589691273 3.304815303670494e-15)
(-0.1156287542573703 0.04745035804597762 3.382998096589932e-15)
(-0.1181517108685111 0.04854838739246502 3.456442676577914e-15)
(-0.1204182399304829 0.04954930180459052 3.51861482484951e-15)
(-0.1224546848890925 0.05046433740158163 3.576304728681463e-15)
(-0.1242844014729873 0.05130357507191716 3.62613709386643e-15)
(-0.1259276212834901 0.05207588738620325 3.670875777727401e-15)
(-0.1274015477955305 0.05278898034693753 3.712389179553822e-15)
(-0.1287205728330543 0.05344948454973627 3.748706841193606e-15)
(-0.1298965414902971 0.0540630665287085 3.781922361398456e-15)
(-0.1309390225911853 0.054634542836393 3.811104488410074e-15)
(-0.1318555611626505 0.0551679872927548 3.838588212865705e-15)
(-0.1326519016356819 0.05566682680018791 3.860568474564507e-15)
(-0.1333321777575586 0.05613392407319984 3.881047364333378e-15)
(-0.1338990691637741 0.05657164724258117 3.898753103955557e-15)
(-0.1343539265354022 0.0569819271072101 3.913768036244219e-15)
(-0.1346968680926537 0.05736630311502994 3.92722866473003e-15)
(-0.1349268502246378 0.05772595920822356 3.937996408403801e-15)
(-0.135041714896097 0.05806175055739434 3.946854696742684e-15)
(-0.1350382160107703 0.05837422203818539 3.955349978406394e-15)
(-0.1349120264444629 0.05866361908971624 3.957469444326216e-15)
(-0.1346577269631123 0.05892989136619959 3.959182711819531e-15)
(-0.1342687777219594 0.05917268935624796 3.956712490064854e-15)
(-0.1337374725277343 0.05939135389516414 3.954512276093569e-15)
(-0.1330548755337752 0.05958489822024849 3.94798573916259e-15)
(-0.1322107394547496 0.05975198191508255 3.93867295548738e-15)
(-0.1311934037653205 0.05989087572009512 3.926940594630329e-15)
(-0.1299896705807056 0.05999941573845217 3.912508845600948e-15)
(-0.1285846549562384 0.0600749449824848 3.895277400197389e-15)
(-0.1269616050641704 0.06011423944114195 3.875171831301579e-15)
(-0.1251016858998464 0.06011341479217659 3.855881787520425e-15)
(-0.1229837175317685 0.06006780840348741 3.828440287726036e-15)
(-0.120583854867848 0.0599718291422488 3.801998188013971e-15)
(-0.1178751895361953 0.05981876436568562 3.767691135145666e-15)
(-0.1148272440641598 0.0596005287277898 3.733371797515942e-15)
(-0.1114053110538506 0.05930733210883742 3.696118817988884e-15)
(-0.1075695598375949 0.05892723239523397 3.660555214256167e-15)
(-0.1032737795135794 0.05844552007978614 3.610952450133529e-15)
(-0.09846352961329337 0.05784385048157702 3.567142306284795e-15)
(-0.09307328665054719 0.05709898624292235 3.519898907693787e-15)
(-0.08702182090672969 0.05618092068165451 3.476789817168141e-15)
(-0.08020432941548881 0.05504999100949803 3.42273910867841e-15)
(-0.07247838417317801 0.05365227796701617 3.371584467697735e-15)
(-0.06363757469697577 0.05191187654505682 3.31945449714031e-15)
(-0.05335932243408222 0.04971696505690592 3.270526788852956e-15)
(-0.04109239244808592 0.04689904330399985 3.21054217539749e-15)
(-0.02583893358383939 0.0432036726536327 3.152923398245063e-15)
(-0.005932080769981766 0.03825534131302447 3.085555231793719e-15)
(0.02112904465662251 0.03159951319474266 2.998337283508583e-15)
(0.05908634640876653 0.02274029534535737 2.879275113862208e-15)
(0.1139025029516278 0.01098182610816474 2.676914349030708e-15)
(0.1932241757434204 -0.004125674756566626 2.37204332707578e-15)
(0.3057161556377389 -0.02255180089153178 1.925726242419849e-15)
(0.4631836485874199 -0.04148310592824959 1.334892373540522e-15)
(0.6632287885178588 -0.05442758908636131 7.165135815405209e-16)
(0.8605445711009381 -0.05993588187819428 3.024956617986476e-16)
(0.9978704812982596 -0.06341916202221333 2.392739852252077e-16)
(1.065473767919985 -0.06806587483433794 3.64157287837271e-16)
(1.096731314503786 -0.07230315951106919 4.430188443866939e-16)
(1.12237386371976 -0.07458949968680911 2.502209399239156e-16)
(1.149949915060306 -0.0754513980910361 -3.546568665774442e-16)
(1.174531975970584 -0.07557075115224188 -1.31367590980038e-15)
(1.190932032999927 -0.07503569531195796 -1.987633068342094e-15)
(1.197793655120539 -0.07386474131437823 -1.341841140215924e-15)
(1.197764966229426 -0.0721341754295423 1.270318517889149e-15)
(1.195090202308894 -0.06985813530751943 5.630160796183283e-15)
(1.192456488065934 -0.06709922685345571 1.076698768893963e-14)
(1.190263121271818 -0.06396843501631952 1.511176007172049e-14)
(1.188031438690146 -0.06057960777995013 1.729857089770616e-14)
(1.185498260793598 -0.05693334990326245 1.731244240838636e-14)
(1.182675701929907 -0.0531060312796402 1.601009436061828e-14)
(1.17962839433619 -0.04905989766026188 1.399913153159598e-14)
(1.176428829191826 -0.04495563063850382 1.145909127239358e-14)
(1.173111364892412 -0.04067269391844511 8.578293484523061e-15)
(1.169791639294777 -0.03649096500739086 5.642229527669439e-15)
(1.166387384600159 -0.03211334473506375 2.655055241545613e-15)
(1.163137877624813 -0.02803259926074225 -1.152658443916075e-16)
(1.15975635396908 -0.02362522913587867 -1.635937084651864e-15)
(1.153954543085631 -0.01944162007164294 -1.555874093993869e-15)
(1.1404213548475 -0.01428204565685452 -7.606140078986094e-16)
(1.122894856205902 -0.009593022535264043 -2.344206698229781e-16)
(1.110168682060879 -0.005344477317663167 -6.365053575178243e-17)
(1.11853605351497 -0.003703391445326851 -4.180286128888563e-17)
(-0.001672325972224593 0.0006588127261538784 5.128055249244685e-17)
(-0.005039300191484531 0.001985126338074347 1.540899988145831e-16)
(-0.008452677074719741 0.003330554859402406 2.577638604160681e-16)
(-0.0119374807045495 0.004704926599336278 3.637500620121467e-16)
(-0.01551937904302463 0.006118342159184258 4.709375746561972e-16)
(-0.01922474503045694 0.007581257036568327 5.82060341668995e-16)
(-0.02308063808168403 0.009104440083516518 6.979274766128424e-16)
(-0.02711457390285356 0.01069886622285147 8.187553088600401e-16)
(-0.03135392255178305 0.01237548150646829 9.445390187965922e-16)
(-0.03582468817217466 0.01414472704188879 1.076112817628148e-15)
(-0.04054931216940339 0.01601567601558811 1.214489397224625e-15)
(-0.04554307385714847 0.01799461524922491 1.360163856338015e-15)
(-0.0508087831827621 0.02008294954773197 1.513137001080498e-15)
(-0.05633001682890158 0.0222745255993709 1.672859985297387e-15)
(-0.06206435782848169 0.02455294948845645 1.838059146512815e-15)
(-0.06793968022707389 0.02689009860579914 2.006610846415748e-15)
(-0.07385715676787664 0.02924728484226764 2.17444940202234e-15)
(-0.07970261094545496 0.03157971823503763 2.33957596761959e-15)
(-0.08536332541154655 0.03384313861960507 2.498858791143709e-15)
(-0.09074398624493489 0.03600012068067598 2.649186980875822e-15)
(-0.09577636381970601 0.0380239146341566 2.790408988737743e-15)
(-0.100421394152786 0.03989928778054379 2.922997740389997e-15)
(-0.1046657120712647 0.04162117271116468 3.041382987880477e-15)
(-0.108515594181317 0.04319228882209799 3.151053798974881e-15)
(-0.1119905426155389 0.04462061821764267 3.248287418371972e-15)
(-0.1151177042431725 0.04591720825376143 3.336409417232649e-15)
(-0.1179275670934474 0.04709447599205666 3.416182783167833e-15)
(-0.1204509501624001 0.04816502181022137 3.48504985422354e-15)
(-0.1227170979091227 0.04914087848207079 3.547561563349228e-15)
(-0.1247526192375009 0.05003309359152337 3.602172264766715e-15)
(-0.1265810160764059 0.05085154500218166 3.652547386096814e-15)
(-0.1282225893354071 0.05160490578068642 3.698989434270598e-15)
(-0.129694563852462 0.05230069611564765 3.73976708387027e-15)
(-0.1310113238611758 0.05294537941613018 3.776273394562802e-15)
(-0.1321846900264897 0.05354447532961604 3.808865689592534e-15)
(-0.1332241973296377 0.05410267359709209 3.838219315330644e-15)
(-0.1341373519641837 0.05462394007216655 3.864608168430862e-15)
(-0.1349298570541588 0.05511161086726107 3.887885420480452e-15)
(-0.1356058038938415 0.05556847329850553 3.908579908637709e-15)
(-0.1361678291241303 0.05599683377486581 3.92620535937418e-15)
(-0.1366172400631006 0.05639857349252857 3.940062401343484e-15)
(-0.1369541110902708 0.05677519305929096 3.954015285395388e-15)
(-0.1371773540138778 0.05712784718674181 3.963205056533004e-15)
(-0.1372847650732472 0.05745737047079803 3.971340980510436e-15)
(-0.1372730507988935 0.05776429509368476 3.977266846657612e-15)
(-0.1371378344305747 0.05804886106771301 3.980533995291767e-15)
(-0.1368736440966658 0.05831101940780083 3.981739544311315e-15)
(-0.1364738834186485 0.05855042838542316 3.98081977520707e-15)
(-0.1359307847051684 0.05876644276153169 3.976952545891961e-15)
(-0.1352353443471689 0.05895809562519639 3.969030133423529e-15)
(-0.1343772394647851 0.05912407215512461 3.961256239161423e-15)
(-0.1333447241989167 0.05926267426077601 3.948293312544083e-15)
(-0.1321245032786265 0.05937177460824011 3.933090542660316e-15)
(-0.1307015795081815 0.05944875796533321 3.915461620459955e-15)
(-0.1290590705262284 0.05949044704475324 3.894512099572003e-15)
(-0.1271779883755589 0.05949300898872122 3.870980865396703e-15)
(-0.1250369727854281 0.05945183718915186 3.844848309325028e-15)
(-0.1226119650637674 0.05936140106443908 3.812862675433435e-15)
(-0.1198758032219326 0.05921505336420145 3.783415664004003e-15)
(-0.1167977087788975 0.05900477999648217 3.751055807323925e-15)