/*--------------------------------*- C++ -*----------------------------------*\
| =========                 |                                                 |
| \\      /  F ield         | OpenFOAM: The Open Source CFD Toolbox           |
|  \\    /   O peration     | Version:  v1812                                 |
|   \\  /    A nd           | Web:      www.OpenFOAM.com                      |
|    \\/     M anipulation  |                                                 |
\*---------------------------------------------------------------------------*/
FoamFile
{
    version     2.0;
    format      ascii;
    class       volScalarField;
    location    "1792";
    object      k;
}
// * * * * * * * * * * * * * * * * * * * * * * * * * * * * * * * * * * * * * //

dimensions      [0 2 -2 0 0 0 0];


internalField   nonuniform List<scalar> 
11031
(
0.003764229987485777
0.00395212628866216
0.004148374436484297
0.00435334423798115
0.004567412129793875
0.004790963524963866
0.005024397854705765
0.005268138089841865
0.005522647611637004
0.005788459070078954
0.006066222796961461
0.006356787292285773
0.006661332832253782
0.006981594359998903
0.007320237451536387
0.007681503756058516
0.008072347580730502
0.008504509124273345
0.008998480099482675
0.009591562046413007
0.01035464430787614
0.01138244433357541
0.01283019322638195
0.01498900639116627
0.01824319962494373
0.02277277118789968
0.02793882450898634
0.03125690305177984
0.02890478177422121
0.02116178354531546
0.01316737403250881
0.007801188786940243
0.004770642165273951
0.003120169658767631
0.002166614746591658
0.001529547446062576
0.001047653101819401
0.0006751862267131587
0.0004013307563848871
0.0002161418165237291
0.0001038319290528883
4.398742324771817e-05
1.630469471986656e-05
5.259185786993181e-06
1.474963494535207e-06
3.673154012489883e-07
9.81557094490844e-08
8.885059428999232e-08
3.948142970244055e-07
2.462170655648324e-06
1.780215802527986e-05
0.0001621593501608229
0.001349352198012434
0.007358126451214335
0.02624607608586184
0.07132650747689465
0.1762236506660737
0.493133554349601
0.003499512154929644
0.003675957792400816
0.003860223568185427
0.004052677666488986
0.004253694744254541
0.00446365582777417
0.004682949051267682
0.004911971913784667
0.005151136128996883
0.005400876794904571
0.005661668645126702
0.005934053835822161
0.006218688515511387
0.006516420118116491
0.006828415378468491
0.007156373248261731
0.0075028826406748
0.007872033533727214
0.008270486226019185
0.008709405963987489
0.009208127304194244
0.009801528161741051
0.01055593277423551
0.01156358667175004
0.01296945246356155
0.01503679690966994
0.01814342038980118
0.02251478628239698
0.02767013074968994
0.03139747584360719
0.02983968446000536
0.0224043696807106
0.01407714126388537
0.008304261292690752
0.005021453122171671
0.003242516847572996
0.00223024218571654
0.001567870133163931
0.001073558863614005
0.0006931340186797902
0.0004132935217200278
0.0002234956382140912
0.0001078656712973813
4.59230860734857e-05
1.710935181332199e-05
5.547169026841553e-06
1.563209058299985e-06
3.903250889096869e-07
1.031170171355745e-07
8.904799731074644e-08
3.907583284826405e-07
2.438534751274503e-06
1.76614626700581e-05
0.000161353583769555
0.001346240752869089
0.007350300253805371
0.02623245591083897
0.07131991988310273
0.1762682721366213
0.4932139385724986
0.003249423139993774
0.003415172720770306
0.003588201859134773
0.003768873377150237
0.003957558285867654
0.004154635131173222
0.004360489497256244
0.004575513919095802
0.004800108606488123
0.005034683635022823
0.005279663646714222
0.00553549672692585
0.005802670121140215
0.006081737074549656
0.006373361746295175
0.006678393615330766
0.006997990420221202
0.007333822020451819
0.007688411629645431
0.008065715898266504
0.008472133582894651
0.008918315831187611
0.009422559446730207
0.01001754871041286
0.0107647646602908
0.01175567436792278
0.01312631582877346
0.01511328990590397
0.0180844596563375
0.02230242719025972
0.02741953214168783
0.03147135795990546
0.0306729431081554
0.02363127295417503
0.01501967426984297
0.008833434709407796
0.005285276357824241
0.003370389461450842
0.002295685037033603
0.001606505479641902
0.00109933919669412
0.0007109028231104793
0.0004251349388159049
0.0002307964241491612
0.000111888454652121
4.786327366657702e-05
1.792013599563196e-05
5.838912468199729e-06
1.653099775406612e-06
4.13895696581459e-07
1.082367676074035e-07
8.931036715492204e-08
3.868758036562107e-07
2.415805967698894e-06
1.752614135898686e-05
0.0001605857042468263
0.001343363473063104
0.007343378957408008
0.02622098578013531
0.07131684712986799
0.1763174646948836
0.4932990261268217
8.702220130119463e-10
2.307461299513821e-08
1.489811618882723e-07
5.196678576633156e-07
1.324264068883464e-06
2.807771398551484e-06
5.287754673309948e-06
9.176849579365421e-06
1.500987134904579e-05
2.347312316689425e-05
3.542990763629305e-05
5.192959634876122e-05
7.417803853603338e-05
0.0001034386003744094
0.0001408378244872541
0.000187086505375607
0.0002422009160374267
0.000305373999200786
0.0003751140153286563
0.0004496164471076934
0.0005271881054632473
0.0006065391536163578
0.0006868774149045439
0.0007678527789551257
0.0008494356329893611
0.0009317920825946208
0.001015187310683367
0.001099924055276516
0.001186309407903652
0.001274640166697942
0.00136519876579203
0.00145825443777115
0.001554066480714668
0.001652888011403879
0.001754969475022262
0.00186056165472715
0.001969918146033863
0.002083297350562683
0.002200964067896919
0.002323190758748594
0.002450258540102495
0.002582457954623703
0.002720089544013115
0.002863464244023122
0.003012903609345863
0.003168739873226853
0.003331315845885861
0.003500984650013959
0.00367810930213418
0.003863062170046926
0.004056224349423059
0.004257985048347563
0.004468741123498448
0.00468889701260593
0.004918865457804952
0.005159069655803699
0.00540994784634981
0.005671961950038359
0.005945612828339998
0.006231466291322577
0.006530196534339092
0.006842657937983652
0.007170003402744582
0.007513879976624321
0.007876755077924399
0.008262468445023383
0.008677186049126102
0.009131098349475513
0.009641568885582782
0.01023929573664471
0.01098120072255399
0.01195845926924117
0.01329865773417524
0.01521524184624755
0.01806326652769705
0.02213423899784322
0.02719109623906924
0.03149508243994929
0.03140594451568806
0.02483209070642966
0.015991075779464
0.009388335422967777
0.005562057020371007
0.003503751870610621
0.002362934762818976
0.001645439030460866
0.001124974506406385
0.0007284725321937149
0.000436837240003156
0.000238030778386652
0.0001158918017398441
4.980347442175957e-05
1.873502560898712e-05
6.133655645658397e-06
1.744396699121342e-06
4.379648329749554e-07
1.13501342140879e-07
8.96344270919347e-08
3.831620656538943e-07
2.393963684723238e-06
1.739609369169046e-05
0.0001598552991160248
0.00134071950967006
0.007337361814594455
0.02621167097821318
0.07131730587346363
0.1763712652548735
0.4933889112016422
9.172674720188134e-10
2.439631593361852e-08
1.577372365505153e-07
5.505859002637803e-07
1.403590779649505e-06
2.97666495601406e-06
5.606627423676336e-06
9.730909752306779e-06
1.59158944796851e-05
2.488705398969126e-05
3.755402018638078e-05
5.50164093674386e-05
7.852608665923651e-05
0.000109373582669376
0.0001486744070685722
0.0001970746542894568
0.0002544749248126731
0.0003199308312129828
0.0003918360674302029
0.0004683271189515834
0.0005477112746321373
0.0006287396034483899
0.0007106764554992182
0.0007932249292314504
0.0008763956583717453
0.00096038118353361
0.001045462822440735
0.001131952792162873
0.001220163738373206
0.001310395956320612
0.001402934490541678
0.001498050971032096
0.001596007238516173
0.001697059272346128
0.001801460773683483
0.001909466198016871
0.002021333230249886
0.002137324770061406
0.002257710514740904
0.002382768216009052
0.002512784671665592
0.002648056497517074
0.002788890705983301
0.00293560511112038
0.003088528568128759
0.003248001050926892
0.003414373570161807
0.003588007934727006
0.003769276366477687
0.003958560992145298
0.004156253257877643
0.004362753350784325
0.004578469771282383
0.004803819293830011
0.005039227702485594
0.005285131918018358
0.005541984501780727
0.005810262096697999
0.006090480295326283
0.006383218917770204
0.006689164129796082
0.007009177895059686
0.007344412132328317
0.007696496850910999
0.00806785271037056
0.008462217415013131
0.008885550117205069
0.009347629068726816
0.009864982306600071
0.0104665362182857
0.01120516561288977
0.01217124824244941
0.01348467844367267
0.01533988789278999
0.01807591117370003
0.02200603447783129
0.02698751866003369
0.03148402898193458
0.03204329544030166
0.02599727940340706
0.01698699357333903
0.009968481513501779
0.005851736174233316
0.003642555918127574
0.002431977433542579
0.001684657648931143
0.001150448710008072
0.0007458266486148863
0.0004483854284468421
0.0002451870378783116
0.0001198681332651443
5.173956186309146e-05
1.955213341894936e-05
6.430674954861672e-06
1.836868173562356e-06
4.624708455388022e-07
1.18896996813849e-07
9.001673239732149e-08
3.796118598274201e-07
2.372983802858614e-06
1.72711963260745e-05
0.0001591617855854994
0.001338307120219849
0.007332245226931135
0.02620451147730695
0.07132131001279721
0.1764297209710906
0.4934836137682935
9.664083774658259e-10
2.577721763014249e-08
1.668873308522198e-07
5.828986882152834e-07
1.48650006381516e-06
3.153186475960203e-06
5.939883809585612e-06
1.030988356234822e-05
1.68624085693035e-05
2.636349702435839e-05
3.977037403665444e-05
5.823349195441806e-05
8.304977070518141e-05
0.0001155333931509793
0.0001567824316390835
0.0002073704741791874
0.0002670768901014156
0.0003348203856537845
0.0004088869631933084
0.000487363820634761
0.0005685664517602181
0.0006512897247485562
0.0007348526426474204
0.0008190074113513767
0.000903801633825932
0.0009894525864315377
0.001076256820511369
0.001164535484171909
0.001254606476010634
0.001346773478018822
0.00144132417205154
0.001538532704562756
0.001638663636029804
0.001741976016874149
0.0018487270277628
0.001959175023200379
0.002073581998817115
0.002192215564101844
0.002315350513315627
0.002443270074395498
0.00257626689771357
0.002714643829788504
0.002858714500068682
0.003008803737912267
0.003165247829903478
0.00332839462007401
0.003498603455560056
0.003676244980553087
0.003861700789110965
0.004055362959204507
0.004257633513873969
0.004468923890697044
0.004689654561696094
0.004920255035673639
0.005161164620258001
0.005412834545590198
0.005675732408430492
0.005950350453761273
0.006237220106721224
0.00653693660734571
0.006850199949831729
0.007177882213976063
0.007521137926382389
0.007881585365569578
0.008261606657614372
0.008664850908648799
0.009097093783580038
0.00956774494805321
0.01009258655405896
0.01069898299731206
0.01143636472690826
0.01239308451265246
0.01368258771725164
0.01548464797793642
0.01811875225516928
0.02191313558381623
0.02680839712315233
0.03145214679836152
0.03259220065132375
0.02711867162390288
0.01800291970046879
0.01057342570141487
0.006154346206250804
0.003786791675411118
0.002502817388317514
0.001724161712775798
0.001175756663913592
0.0007629573028244792
0.0004597706796137507
0.0002522574443289114
0.0001238120231990853
5.366843143862967e-05
2.036998535590023e-05
6.729388105472322e-06
1.930323189290645e-06
4.873618503355743e-07
1.244118988547466e-07
9.045390073434365e-08
3.762184641397445e-07
2.352833450199771e-06
1.715126860231041e-05
0.0001585041091086509
0.001336121397495753
0.007328013644732274
0.02619948015391166
0.0713288312529929
0.1764928212785445
0.4935831227481055
1.018045919379003e-09
2.722796757513433e-08
1.765002363310118e-07
6.168462472999834e-07
1.573603637782311e-06
3.338632584700536e-06
6.289963156793188e-06
1.091799412853862e-05
1.785628782434182e-05
2.791310919074044e-05
4.209481937086382e-05
6.160353682583921e-05
8.778038731735036e-05
0.0001219595871853999
0.0001652150069497671
0.0002180393503875611
0.0002800843997015309
0.0003501311664591688
0.000426363056052769
0.0005068257028259324
0.0005898492923263826
0.0006742758807321332
0.0007594796779820655
0.000845260876195799
0.0009317023389608941
0.001019044452496073
0.0011075977487664
0.001197691479479592
0.00128964833547367
0.001383775199988851
0.001480362394923639
0.00157968670430169
0.001682015597251279
0.001787611418140598
0.00189673506009795
0.002009649006469266
0.002126619781924157
0.002247919908085578
0.002373829460653972
0.002504637310010137
0.002640642108404434
0.002782153067530741
0.002929490555573875
0.00308298652996339
0.003242984816046237
0.003409841234656031
0.003583923580518851
0.003765611455040784
0.003955295963222776
0.004153379297421511
0.004360274253208955
0.004576403756492886
0.004802200541376603
0.005038107206475483
0.005284577018717262
0.005542076052671666
0.005811087599848181
0.006092120326070845
0.006385722519089314
0.006692506159050395
0.007013186802323131
0.007348648993443775
0.00770005316697242
0.008069010705633706
0.008457872627673908
0.008870211468774153
0.009311640122984003
0.009791238074176273
0.01032411948503913
0.01093626201830247
0.01167407792145653
0.01262267436142808
0.01389112420952815
0.01564771563858052
0.0181895229207166
0.02185416539475073
0.02665598903290551
0.03140993983233907
0.03306156855466727
0.02818947554144249
0.01903407328730417
0.01120259741801968
0.006469928618236184
0.003936448849412965
0.002575456319470868
0.001763952324656477
0.001200895291775122
0.0007798589311920513
0.0004709860713933123
0.0002592355082323511
0.0001277187484883264
5.558730434412193e-05
2.118723260940872e-05
7.029252100640117e-06
2.024580506783214e-06
5.125877849306815e-07
1.300344345349301e-07
9.094255447053871e-08
3.729751075889243e-07
2.333479229460737e-06
1.703612426778292e-05
0.0001578811296288161
0.001334156426498991
0.007324646056974324
0.02619653303853111
0.07133980898921602
0.1765604983716836
0.4936874729349265
1.072147838777106e-09
2.874777649725641e-08
1.865710386183677e-07
6.52411780093787e-07
1.664859393306447e-06
3.532915398644498e-06
6.656702353486037e-06
1.155496041317382e-05
1.889706703812702e-05
2.953512750786627e-05
4.452608570711997e-05
6.51243772759374e-05
9.271420101074736e-05
0.0001286458521764667
0.000173962044811457
0.0002290664777317265
0.0002934778212764168
0.0003658396659095926
0.0004442385856461753
0.0005266863215797899
0.0006115336354508828
0.0006976723951509396
0.0007845319255202328
0.0008719588761382137
0.0009600694925249914
0.00104912566638664
0.001139450806190882
0.001231381657496095
0.001325245481526731
0.001421352403261113
0.001519995580829494
0.001621454708782407
0.001726000461813581
0.001833898767558422
0.001945414496810147
0.00206081449385714
0.002180370010364569
0.00230435864508976
0.002433065891129055
0.002566786373505196
0.00270582483978798
0.002850496947871923
0.003001129878679326
0.003158062790841556
0.003321647126084124
0.003492246769081995
0.003670238063403421
0.003856009687343133
0.004049962399411601
0.004252508676247023
0.004464072286911216
0.004685087884183639
0.004916000747571326
0.005157266903797805
0.005409353985297171
0.005672743404184637
0.005947934752141919
0.00623545386768715
0.006535866849272177
0.006849803633930732
0.007177996937318637
0.007521345924029352
0.007881019946806827
0.008258627870921666
0.008656496280071858
0.009078131863329111
0.009529003051204066
0.0100178927181747
0.01055931439661775
0.01117801114761429
0.01191777793040124
0.01285944767741259
0.01410960124344716
0.01582715980690676
0.01828578779456464
0.0218270463045437
0.02653032378998539
0.03136507618029417
0.03346099989972201
0.02920424578691457
0.02007541845893401
0.01185525684661519
0.006798514771943398
0.004091510825218332
0.00264988951282092
0.001804028748358191
0.001225861741971412
0.0007965269632611168
0.000482025722101843
0.000266115495010737
0.0001315840163579337
5.749360119571508e-05
2.200260119494244e-05
7.329746033499362e-06
2.119463662314415e-06
5.380991762898749e-07
1.357529576522543e-07
9.147931933299425e-08
3.698752182609959e-07
2.314888678132529e-06
1.692558125407155e-05
0.0001572917218278205
0.001332406254134231
0.007322120745387331
0.02619562253585387
0.07135417970951838
0.1766326886465633
0.4937967165802193
1.129000835864187e-09
3.034426746452571e-08
1.9714898982558e-07
6.897669703953652e-07
1.760703648508371e-06
3.736954469825763e-06
7.041814245526246e-06
1.222370207338502e-05
1.998939109463264e-05
3.123652357037774e-05
4.707409319985664e-05
6.880940375510091e-05
9.786832440336481e-05
0.0001356128563915172
0.000183047198694891
0.0002404777957848169
0.000307284943193072
0.0003819754656322406
0.0004625449195660473
0.0005469783691718406
0.0006336523051060812
0.0007215103707637617
0.0008100365609026296
0.0008991224714664244
0.0009889161866837499
0.001079700030748468
0.001171809784603073
0.001265589641988781
0.001361371678019735
0.001459469642596583
0.001560179945482479
0.001663785576871728
0.001770560740909028
0.001880775202123842
0.001994697994204376
0.002112600448584923
0.002234758621194325
0.002361455228188761
0.002492981193578929
0.002629636894050372
0.00277173316191087
0.002919592090057371
0.003073547667731518
0.00323394626211852
0.003401146956173772
0.003575521744766508
0.00375745559243861
0.003947346355563076
0.004145604579832728
0.004352653195373891
0.004568927154022889
0.004794873087142035
0.005030949120061376
0.005277625062522393
0.005535383331962116
0.005804721174107821
0.006086155074383169
0.006380228764225204
0.00668752704241829
0.007008698928334421
0.007344495758593359
0.007695833275946871
0.008063892469144927
0.008450283617101165
0.008857314826478471
0.009288436454398951
0.009748988568415089
0.01024748648859328
0.01079789952669677
0.01142385516170261
0.01216680276602918
0.01310280857496774
0.01433744740872446
0.0160211443003842
0.0184046672690615
0.02182983810973386
0.02643269429877257
0.03132131423886619
0.03380003585397977
0.03015904045860658
0.02112180914884151
0.01253054805289406
0.007140163381188763
0.004251978407657537
0.002726117182709444
0.001844394031278531
0.001250656675258744
0.0008129599729046278
0.0004928862338506998
0.0002728933525747908
0.0001354045070713415
5.938522132477154e-05
2.281501601572734e-05
7.630418283864264e-06
2.214816279384897e-06
5.638513554260954e-07
1.415567566797285e-07
9.206093877251707e-08
3.669120248544275e-07
2.297027852301603e-06
1.681944635363241e-05
0.0001567346543995339
0.001330864126262755
0.00732041288954566
0.02619669297894089
0.07137187512615069
0.1767093377746108
0.4939109297102032
1.18836315764233e-09
3.201106401676474e-08
2.081932176301354e-07
7.287703863045432e-07
1.860779008808332e-06
3.949999091611443e-06
7.443900775111278e-06
1.292182689395041e-05
2.112941851602835e-05
3.301143033965958e-05
4.973024289127603e-05
7.264644646703764e-05
0.0001032260589381282
0.0001428383613683312
0.0001924417982884657
0.0002522376982370388
0.0003214632552065283
0.0003984894577515772
0.0004812263103186692
0.0005676385692969838
0.0006561327913656047
0.0007457060600925174
0.0008358969513785744
0.0009266413340292802
0.001018118598877514
0.001110631344843353
0.001204527882521288
0.001300160169980522
0.001397865434669626
0.001497961326770323
0.001600747686256374
0.001706510878801745
0.001815528635491703
0.001928074493835753
0.002044421547371994
0.002164845491352963
0.002289627057392409
0.002419053956591655
0.00255342243672562
0.002693038538774869
0.002838219116585721
0.002989292661404032
0.003146599960720438
0.003310494607518308
0.003481343368941258
0.003659526418542605
0.003845437433817441
0.004039483565159357
0.004242085284790933
0.004453676140386735
0.00467470245778624
0.004905623071129264
0.005146909214258853
0.005399044792235685
0.005662527381672632
0.005937870515687058
0.0062256081266835
0.006526302521390051
0.006840558048632168
0.007169043881524559
0.007512531356508404
0.007871954615478285
0.008248508773261805
0.008643809075382742
0.009060150480255241
0.009500935455738166
0.009971389884570501
0.01047978680555092
0.01103959906325372
0.01167343337364246
0.01242058618892665
0.01335246193827765
0.01457390626282716
0.0162277240304171
0.01854394294833267
0.02186109582536155
0.0263618498688583
0.03128010384142954
0.03408802697364439
0.03105150651164231
0.02216803151085801
0.01322741021255892
0.007494908454275687
0.004417848502005488
0.002804134346377283
0.001885049438043308
0.001275280754745377
0.0008291573119903191
0.0005035651655652597
0.0002795658175981012
0.0001391774131584481
6.126033602594147e-05
2.362352012798839e-05
7.930859102906199e-06
2.3104940300741e-06
5.898024421591404e-07
1.474356352421059e-07
9.268425710967722e-08
3.640788869484548e-07
2.279863255917071e-06
1.671752659203486e-05
0.0001562086377158974
0.001329522501747949
0.007319494999763211
0.02619968014320409
0.07139282542896054
0.1767904064616934
0.4940302613095277
1.248689158476694e-09
3.37079801837904e-08
2.194466677094745e-07
7.685297101252709e-07
1.962819664054635e-06
4.167262800189966e-06
7.853989237571156e-06
1.363385845823741e-05
2.229204539988926e-05
3.482102495014117e-05
5.24368021390248e-05
7.65525510778735e-05
0.0001086720364295687
0.0001501672311921789
0.0002019447760326632
0.0002640959697210433
0.0003357144726744568
0.0004150406674939509
0.000499907367389752
0.0005882664061766825
0.0006785583967395963
0.0007698345890766235
0.0008616870084837252
0.000954094120216647
0.001047265116057788
0.001141521740940889
0.00123722403365111
0.001334731129354099
0.001434384937166118
0.001536506598194363
0.001641399008576047
0.001749351564879572
0.001860645210325717
0.00197555697409446
0.002094363763319264
0.002217345426575414
0.002344787197297168
0.002476981642291353
0.002614230226839339
0.002756844582221012
0.002905147539743684
0.00305947397424524
0.003220171485390429
0.003387600934253635
0.003562136842848629
0.003744167662620882
0.003934095913201867
0.00413233819738482
0.004339325103356933
0.004555501017874992
0.004781323895649298
0.00501726506381373
0.005263809194413033
0.005521454661146188
0.005790714625583318
0.006072119397737958
0.006366220928479185
0.00667360077704962
0.006994883663048223
0.007330759930648047
0.007682022209892048
0.008049624738993065
0.008434779066956272
0.008839108682422284
0.009264900283970765
0.009715516159126072
0.01019608089746167
0.01071464813053581
0.01128423709482961
0.01192651679099543
0.01267878375151221
0.01360790464357219
0.01481828810757932
0.01644613219546112
0.01870236582051622
0.02191911441937472
0.0263158422844518
0.03124193641934266
0.03433471977596792
0.03188084696461235
0.02320826224419961
0.01394379884956115
0.007862216743891808
0.004588829597848685
0.00288379253898699
0.001925923818198451
0.001299692842873912
0.0008450913642572855
0.0005140424383866406
0.0002861186287989067
0.0001428936471839356
6.311394308961811e-05
2.44257657347638e-05
8.230134499229971e-06
2.406183385719407e-06
6.158640242363213e-07
1.533686923734993e-07
9.334490643308539e-08
3.613739929599529e-07
2.263390580231074e-06
1.661981457234974e-05
0.0001557138597913782
0.001328383247021481
0.007319372248302543
0.02620457942298721
0.07141707736158422
0.1768760507430123
0.4941549435809625
1.310552109034866e-09
3.544942043145492e-08
2.309996012560956e-07
8.093540297014314e-07
2.067602056606672e-06
4.390369619188684e-06
8.275092015833869e-06
1.436492633726907e-05
2.348545112123808e-05
3.667765737288379e-05
5.521152690664594e-05
8.055207661786148e-05
0.0001142381593111109
0.0001576394136999053
0.0002116042072067965
0.0002761087639052945
0.0003501030012952109
0.0004317022606220291
0.0005186707138012025
0.0006089547016125823
0.0007010328906149808
0.0007940113978847163
0.0008875344216535984
0.0009816210442262214
0.001076508334250966
0.001172535614762954
0.001270073478942446
0.001369487391559966
0.001471123338492897
0.001575305515220206
0.001682339554581104
0.001792517644929775
0.001906123759802939
0.002023438278532137
0.002144741810406739
0.002270318267793491
0.002400457311789739
0.002535456303958978
0.002675621876164728
0.002821271208434382
0.002972733077732997
0.003130348721421543
0.003294472543466899
0.003465472680786745
0.003643731438239407
0.003829645596428068
0.004023626596967791
0.004226100608332442
0.004437508485699832
0.00465830564843795
0.004888961921138016
0.005129961416726931
0.005381802594690767
0.005644998709069914
0.005920078986425882
0.006207591072212924
0.006508105585014586
0.006822224096134377
0.007150592593134419
0.007493923670806516
0.007853032583484864
0.008228895360509856
0.008622742233046756
0.009036208064664797
0.009471575904428681
0.009932175066669335
0.01042304084670572
0.01095202878261092
0.01153174494499244
0.01218300263880989
0.01294127673680348
0.01386933198713439
0.0150706788930272
0.01667553974316551
0.01887857449112216
0.02200228398118206
0.02629356783992815
0.03120899744044514
0.03454942246805857
0.03264792425517075
0.02423711478778346
0.01467773234082594
0.008241667086740012
0.004764697336245705
0.002964973281263289
0.001966964071317272
0.001323865215820676
0.0008607448081001089
0.0005243054003248873
0.0002925423543726455
0.0001465468868040699
6.49424088055223e-05
2.521998404879252e-05
8.527518749877526e-06
2.501634229645953e-06
6.419639480764648e-07
1.593384668203485e-07
9.403880099225145e-08
3.58793654025881e-07
2.247594245491068e-06
1.652623172642504e-05
0.0001552500188935259
0.001327446343378824
0.007320048073144829
0.02621138290709706
0.07144488036168796
0.1769666312394517
0.4942850301643847
1.375050946685188e-09
3.726456305412355e-08
2.43040568686843e-07
8.519013168323981e-07
2.176802314221858e-06
4.622867776390262e-06
8.71386875168745e-06
1.512651947108055e-05
2.472824656642824e-05
3.861000338247826e-05
5.809675809233036e-05
8.470515383079655e-05
0.0001200066538971562
0.0001653631496603923
0.0002215571981471689
0.0002884432421748814
0.0003648252354565466
0.0004486970000008968
0.0005377609273784828
0.000629964306456031
0.0007238276719930062
0.0008185131582465373
0.0009137166534850522
0.001009496768732219
0.001106117369057153
0.001203934517671236
0.00130332878750108
0.001404671601159458
0.00150831278090937
0.001614579414967859
0.001723779754841325
0.001836208688084131
0.001952153141313904
0.002071896777972941
0.002195723852390714
0.002323922291732206
0.002456786144020607
0.002594617531122055
0.002737728224303849
0.002886440930865344
0.003041090357510741
0.003202024093246481
0.003369603340730493
0.003544203512903585
0.003726214704031495
0.003916042040338161
0.004114105913509547
0.004320842103452733
0.004536701801138838
0.004762151558411532
0.004997673208831945
0.005243763840055155
0.005500935948290754
0.005769717988279655
0.006050655655275032
0.006344314428024479
0.006651284199923036
0.006972187286642154
0.007307691826078301
0.007658533731278171
0.008025552192808099
0.008409746683735942
0.00881236827801872
0.009235066176062985
0.009680124077055187
0.01015084497452969
0.0106521858853006
0.01119182383954312
0.01178198933255787
0.01244271874574436
0.01320784985625327
0.01413655242981613
0.01533042224509373
0.01691503726553368
0.01907111270873769
0.02210899425311253
0.0262960315041105
0.03118767817718189
0.03473994511698409
0.03335498502562553
0.02524980950745612
0.01542729531094356
0.008632934485300395
0.004945287931691565
0.003047584151012472
0.002008131693032157
0.00134778049374088
0.0008761080647235082
0.0005343469391411229
0.0002988311611663449
0.0001501328760589296
6.674312919841102e-05
2.600484639789655e-05
8.822446331417458e-06
2.596645824498753e-06
6.680428704508795e-07
1.653302487812521e-07
9.476215377950761e-08
3.563330650394256e-07
2.232451740166106e-06
1.64366535526333e-05
0.000154816408159186
0.00132670865610789
0.007321512383522883
0.02621997169544877
0.07147573109162611
0.1770626333761907
0.4944206340591907
1.441920998464879e-09
3.914620242058901e-08
2.55522588651117e-07
8.960074227074184e-07
2.290003376671736e-06
4.863879049709747e-06
9.168683800729382e-06
1.59158438700159e-05
2.601595633685273e-05
4.061124224054199e-05
6.108250356930137e-05
8.89976126885823e-05
0.0001259580052695303
0.000173312389589257
0.0002317702870006624
0.0003010584018521064
0.000379833450024797
0.0004659718891843401
0.000557121209107395
0.0006512356755370665
0.0007468810727457374
0.0008432764969701833
0.0009401690701669549
0.001037655973678104
0.001136026899650258
0.001235653843128618
0.001336926722855842
0.001440222422319541
0.00154589420244181
0.00165427171955154
0.001765665577642082
0.001880373146443762
0.001998684132831524
0.002120885350660416
0.002247264600440491
0.002378113755989425
0.002513731210104701
0.002654423825824645
0.002800508512421217
0.002952313518107457
0.003110179504208425
0.003274460444396117
0.003445524378271131
0.00362375403570399
0.003809547343091446
0.004003317814921006
0.004205494836854403
0.004416523846195139
0.004636866422856775
0.004867000316246777
0.005107419455360062
0.005358634020683006
0.005621170708913244
0.005895573400551224
0.006182404563108161
0.006482247910196685
0.006795713128098425
0.007123443933847194
0.007466131435352586
0.007824535880006978
0.008199521655269
0.00859211326571885
0.009003584684828527
0.009435602232996644
0.009890454245192833
0.01037142349024333
0.01088339872181839
0.0114338962034792
0.0120348049346423
0.0127054562782689
0.0134782215212186
0.01440914242905392
0.01559667386663039
0.0171629539088027
0.01927846525245784
0.02223759931864366
0.02632340963432053
0.03118131909000755
0.03491294301056567
0.03400499318955198
0.02624194105024501
0.01619048902446812
0.009035653208963353
0.005130428567788298
0.003131525375893865
0.002049385212346399
0.00137142096061518
0.0008911721424160637
0.0005441607186945643
0.000304979848973056
0.000153647757139075
6.85137044110096e-05
2.677911039728693e-05
9.114381580428282e-06
2.691025739230029e-06
6.940432479237267e-07
1.713296151239613e-07
9.551122301150046e-08
3.539875022235751e-07
2.217940849164901e-06
1.6350955734365e-05
0.0001544122813142083
0.001326166389448319
0.007323751475328013
0.02623036433065329
0.07150903339374658
0.1771615432782594
0.494561996226148
1.510801024251155e-09
4.108473899328147e-08
2.683834531399917e-07
9.414546713376323e-07
2.40664930939843e-06
5.112222938156648e-06
9.637310811793682e-06
1.672902642765452e-05
2.734221594531339e-05
4.267133902391221e-05
6.415343117341283e-05
9.340665023933607e-05
0.0001320592410332647
0.0001814410970478818
0.0002421820480040464
0.0003138766710011768