/*--------------------------------*- C++ -*----------------------------------*\
| =========                 |                                                 |
| \\      /  F ield         | OpenFOAM: The Open Source CFD Toolbox           |
|  \\    /   O peration     | Version:  v1812                                 |
|   \\  /    A nd           | Web:      www.OpenFOAM.com                      |
|    \\/     M anipulation  |                                                 |
\*---------------------------------------------------------------------------*/
FoamFile
{
    version     2.0;
    format      ascii;
    class       volScalarField;
    location    "1792";
    object      nut;
}
// * * * * * * * * * * * * * * * * * * * * * * * * * * * * * * * * * * * * * //

dimensions      [0 2 -1 0 0 0 0];


internalField   nonuniform List<scalar> 
11031
(
0.0001439372024025443
0.0001591360521811913
0.0001755624010931062
0.000193271408461755
0.0002123121561229019
0.0002327247476175798
0.0002545364769363463
0.0002777567045579981
0.0003023698981766208
0.0003283260059558504
0.000355526861918969
0.0003838065622075405
0.0004129025125574878
0.0004424118518227888
0.0004717248196905302
0.0004999219872020069
0.0005256162921556984
0.0005467162055516818
0.0005600944088953314
0.000561204713332728
0.0005440831824772782
0.0005128042183609841
0.0004846834465052623
0.0004644631846373757
0.0004557230451245571
0.000459427718167189
0.0004657434596337137
0.0004538580619306181
0.0004043776542735413
0.000329077874781333
0.0002582566050395519
0.00020865730549234
0.0001817804369526862
0.0001723889803895083
0.0001714758243744493
0.0001679221294734062
0.0001543342065082331
0.0001303789426714017
9.993932921743288e-05
6.797274810225201e-05
3.977256378315179e-05
1.953572444845816e-05
8.001591039827296e-06
2.753908456363586e-06
8.072892681349181e-07
2.078216133227311e-07
5.704329815151918e-08
5.280380727927238e-08
2.390517508820362e-07
1.512391702474504e-06
1.095129769063156e-05
8.900477623051941e-05
0.0004482299205534614
0.001298321397068911
0.002864792696909499
0.005292546175462648
0.008657158094416586
0.009433681748812357
0.000119339079609155
0.0001325091090438334
0.0001468080757754645
0.0001622986073579237
0.0001790411648525515
0.0001970923280734398
0.0002165025619229801
0.0002373133027410922
0.000259553120902438
0.0002832326101942603
0.000308337481932304
0.0003348190679429133
0.000362580996150766
0.0003914600895501393
0.0004211983847131048
0.0004514013098729567
0.0004814741480837591
0.0005105245692816261
0.0005372133040081335
0.0005595299769135193
0.0005744754399520789
0.0005776741237960211
0.000563127209481252
0.000532513321017941
0.0005025918335846046
0.0004806555298725126
0.0004694834721107577
0.0004686969446405634
0.0004767653454035027
0.0004673041716616639
0.0004209481180480283
0.0003447253408215243
0.0002697793526736358
0.000215712717627531
0.0001853122688466402
0.0001735670618626275
0.0001716134315930013
0.0001681959409193529
0.0001552622324477374
0.0001318577333529987
0.0001016443680993082
6.957700910297933e-05
4.100975289877484e-05
2.02975469039381e-05
8.373646085733724e-06
2.900533132070705e-06
8.549375532789177e-07
2.207482005796948e-07
5.991334771542138e-08
5.291645370155173e-08
2.365995317215107e-07
1.498036475152898e-06
1.086756181634176e-05
8.86254059994583e-05
0.0004476674354361126
0.001298067233705772
0.002864924456783765
0.005294249897443998
0.008664045551255233
0.009447347777285861
9.806167567719748e-05
0.0001093731807283417
0.0001217059052916015
0.0001351245392060345
0.0001496939656128313
0.0001654782345961167
0.0001825392251849154
0.0002009349124661245
0.0002207171175377337
0.0002419285752222527
0.0002645990854069913
0.0002887404086599265
0.0003143394026028047
0.0003413486359367742
0.000369673301970118
0.0003991525847394206
0.0004295325521602009
0.0004604259238158675
0.0004912513559133741
0.0005211408524079519
0.0005487985450472482
0.0005722890002014157
0.0005887354778749356
0.0005939410239969945
0.0005820738826869629
0.0005524932110201312
0.0005207553552857224
0.0004971989852809543
0.0004837608325555387
0.000477364041860657
0.0004879983955438936
0.0004804541296186237
0.0004373186710046642
0.0003606710042749536
0.0002817807034857502
0.0002231839436189057
0.0001891608426477357
0.0001749653402334164
0.0001718493785028978
0.0001684574913030936
0.0001561232917446568
0.0001332620620684862
0.0001032878742036897
7.114019008150841e-05
4.222751563405799e-05
2.105491884555163e-05
8.746877539123901e-06
3.04875570707123e-06
9.0342722343775e-07
2.339844643616309e-07
6.287490218155709e-08
5.306815947295876e-08
2.342537959419904e-07
1.48424164086303e-06
1.078708279005265e-05
8.826389944496988e-05
0.0004471473471080969
0.00129788007809275
0.002865169071788135
0.005296086710044215
0.008671108628862256
0.009460867519147693
7.275092273563726e-16
1.029698944387896e-13
1.890598123460647e-12
1.37445355690022e-11
6.144025157299017e-11
2.055828191542655e-10
5.696347608268701e-10
1.384477138248579e-09
3.057658587509943e-09
6.27729750662445e-09
1.216038678593571e-08
2.244984183044694e-08
3.974964902535517e-08
6.776037928761825e-08
1.114454536924129e-07
1.770486814642663e-07
2.719345803020479e-07
4.043378972140187e-07
5.832021189270052e-07
8.182417316570995e-07
1.120192477785856e-06
1.501078886854814e-06
1.97434414292645e-06
2.55481409857796e-06
3.258574439047026e-06
4.102833770176063e-06
5.105823107897909e-06
6.286775976631522e-06
7.665992618216728e-06
9.2649659746089e-06
1.110654449295416e-05
1.321511154588357e-05
1.561676765881074e-05
1.83395074731987e-05
2.141338722942476e-05
2.487068076647095e-05
2.874602287742876e-05
3.307653886957465e-05
3.790195867382052e-05
4.326471295668192e-05
4.921000767860987e-05
5.578587220326948e-05
6.304317462315192e-05
7.103559621506724e-05
7.981955477531679e-05
8.945406408587662e-05
0.0001000005121038578
0.0001115223439676777
0.000124084617794945
0.000137753405716081
0.0001525949976789113
0.0001686748606947531
0.0001860562854593115
0.0002047986327492318
0.0002249550613391967
0.0002465695747994994
0.0002696731580360487
0.0002942786734177082
0.0003203740298574545
0.0003479128916403461
0.0003768018019329162
0.000406881967099446
0.0004379029391392022
0.000469483825221349
0.0005010551441664357
0.000531770719009513
0.0005603740268202183
0.0005849986382332373
0.000602883995488753
0.0006100159287749648
0.0006008115316229719
0.0005726078935447703
0.0005392163570563711
0.0005140605745556269
0.0004984987806853175
0.0004875312209250163
0.0004994366364634946
0.0004933773493666711
0.000453445087440347
0.0003768622581168226
0.0002942337797286607
0.0002310570079982164
0.0001933140515047718
0.0001765782679543133
0.0001721881887830747
0.0001687150739563699
0.0001569231781760563
0.0001345942039109173
0.0001048698099410556
7.266086938640956e-05
4.342387209616039e-05
2.180620245507679e-05
9.120362581553238e-06
3.198188523395603e-06
9.526292713915366e-07
2.474954550816985e-07
6.59201140836064e-08
5.325698053096287e-08
2.320117089349554e-07
1.470994673691357e-06
1.070980280619584e-05
8.792011777979869e-05
0.0004466697263389335
0.00129776027065293
0.002865527118571213
0.005298052750470854
0.008678351459190038
0.009474246147855763
7.691547544947188e-16
1.093531381105061e-13
2.011999375372327e-12
1.464232154671913e-11
6.549168846452843e-11
2.19213517164142e-10
6.075068351998803e-10
1.476553482531448e-09
3.26053854682654e-09
6.691479620484423e-09
1.295490578891485e-08
2.389442758172945e-08
4.2251445174107e-08
7.189731967632991e-08
1.179839220196086e-07
1.869346877762317e-07
2.862605165947674e-07
4.243058322361537e-07
6.101111976504523e-07
8.535100619186241e-07
1.16539898418989e-06
1.55800453954527e-06
2.045006101353972e-06
2.641490963280936e-06
3.363809695865786e-06
4.229424023270402e-06
5.256814393072515e-06
6.465473917789452e-06
7.87598310199641e-06
9.510143646858345e-06
1.139114704345055e-05
1.354375822700443e-05
1.599450104936397e-05
1.877183798687563e-05
2.190634014924639e-05
2.543084578511343e-05
2.938060619991409e-05
3.379341789857462e-05
3.870973926926147e-05
4.417278917129207e-05
5.022862372256952e-05
5.69261863337576e-05
6.431732437878801e-05
7.245676429106984e-05
8.140203462006648e-05
9.121332404080955e-05
0.0001019532581240084
0.000113686574763661
0.0001264796730782808
0.0001404000041749974
0.0001555152636548187
0.0001718923346964895
0.0001895959153743404
0.0002086867428100329
0.0002292192970187355
0.0002512388239782401
0.0002747774535287296
0.0002998490903347876
0.000326442606720935
0.0003545126316724569
0.000383966859276784
0.0004146482078445452
0.0004463092151487202
0.0004785745548692074
0.0005108852289552614
0.0005424145401259474
0.0005719413697986265
0.0005976618799056335
0.0006169222304632208
0.0006258809524515155
0.0006192139432449065
0.0005926989237168125
0.0005580006795468436
0.0005312105725478057
0.0005136473341712802
0.0004981106544044969
0.0005110431936054549
0.0005061326645674533
0.0004692980755065899
0.0003932401770447483
0.0003071112929352711
0.0002393186781806266
0.0001977603565091216
0.0001783992948126946
0.0001726327074538525
0.0001689760388475867
0.0001576676652893352
0.0001358568433188802
0.0001063906435260756
7.41381058817777e-05
4.459720494237664e-05
2.25499574875473e-05
9.493255044635444e-06
3.348465740085235e-06
1.002419123214646e-06
2.612467086400053e-07
6.904107149075372e-08
5.348087167700384e-08
2.298700643111168e-07
1.458280857983358e-06
1.063564970846823e-05
8.759383676842191e-05
0.0004462345139024379
0.001297708122695588
0.002865999152716617
0.005300144791841563
0.008685778972892494
0.009487465690668053
8.126657119882192e-16
1.160278829423557e-13
2.13901440896267e-12
1.558189231950797e-11
6.973223388361972e-11
2.334804329645233e-10
6.471407216493198e-10
1.572880329364916e-09
3.472655528583639e-09
7.124102219823441e-09
1.378360965095195e-08
2.539812110509533e-08
4.484854101668333e-08
7.617703602894472e-08
1.247201991575282e-07
1.970733111291723e-07
3.008845789210058e-07
4.446033385304716e-07
6.373722151387061e-07
8.891605775091944e-07
1.211052949935487e-06
1.615508131453689e-06
2.116459955450938e-06
2.729251974910137e-06
3.470482735095078e-06
4.357854504757618e-06
5.410088828980959e-06
6.64693109199921e-06
8.089235344624829e-06
9.759106250157065e-06
1.168007368893314e-05
1.387728075947272e-05
1.637767253372265e-05
1.921017844651317e-05
2.240588478690789e-05
2.599819561957784e-05
3.002298114336508e-05
3.451871232396029e-05
3.95265800390142e-05
4.509059603025443e-05
5.125767183071505e-05
5.807767056706513e-05
6.560342490350477e-05
7.389071262740962e-05
8.29981792580208e-05
9.298719435140716e-05
0.0001039216250286901
0.0001158675062002674
0.0001288925819539182
0.0001430656860737934
0.0001584559212983612
0.0001751315857452567
0.0001931587800951069
0.0002125996083379367
0.0002335098558351357
0.000255935986336805
0.0002799112377283505
0.0003054505026582958
0.0003325435370008258
0.0003611458157936718
0.0003911660044894197
0.0004224484545796669
0.0004547482442892471
0.0004876948820360681
0.0005207386202300965
0.0005530701254207929
0.0005835000103294254
0.0006102806307294837
0.0006308537169677007
0.0006415304148303903
0.0006372005285995772
0.0006126084690040434
0.0005771022584683998
0.0005486239405568771
0.0005291678473398028
0.000508227857603175
0.0005189775124170343
0.0005187709551826876
0.0004848637995302319
0.000409749950676397
0.0003203877071473177
0.00024795837744817
0.0002024903227641201
0.0001804219279784111
0.0001731845569356109
0.0001692468801865244
0.0001583625990202767
0.0001370533255547365
0.0001078517152233412
7.557182869516419e-05
4.574659577595046e-05
2.328517255388517e-05
9.864909031021151e-06
3.499295409808151e-06
1.052694440469939e-06
2.752092810755349e-07
7.223096901469963e-08
5.373781849430907e-08
2.278247432399075e-07
1.446079974938421e-06
1.056451574338349e-05
8.728459944383208e-05
0.0004458410417466746
0.001297722980264774
0.002866584221170107
0.005302358568619631
0.008693395567199436
0.009500516400769755
8.583777203808129e-16
1.230416458984623e-13
2.272515807585202e-12
1.656959258245083e-11
7.419024772911772e-11
2.48478393550415e-10
6.887986596971194e-10
1.674092561415668e-09
3.695402400965272e-09
7.57799609228558e-09
1.465190683883058e-08
2.697073960602925e-08
4.755801393002451e-08
8.062823202551903e-08
1.3170126590268e-07
2.075398166502095e-07
3.159246394319515e-07
4.654092383822765e-07
6.652441419537659e-07
9.255453712289812e-07
1.257596513293169e-06
1.674096021478652e-06
2.18923425588177e-06
2.818608104487853e-06
3.579057651543286e-06
4.4885174962284e-06
5.565941791636216e-06
6.831320487937203e-06
8.305774872026726e-06
1.001170793299079e-05
1.19729850501219e-05
1.421512627267374e-05
1.676549822431996e-05
1.965349902472067e-05
2.291073306763682e-05
2.657117420371373e-05
3.067131638510068e-05
3.525031064456078e-05
4.035008657064038e-05
4.60154554885016e-05
5.229419142143188e-05
5.923708453443107e-05
6.689796019810052e-05
7.533365493226938e-05
8.460393837434504e-05
9.477136767911332e-05
0.0001059010575333182
0.0001180603449156412
0.000131318322648379
0.0001457452093125251
0.0001614115147521513
0.0001783869492163239
0.0001967390095585765
0.000216531155475583
0.0002378204603057802
0.0002606545799164126
0.0002850678232525219
0.0003110760180805863
0.0003386697279941714
0.0003678051638284262
0.0003983917984710676
0.0004302751659859945
0.0004632124898429102
0.000496837470303636
0.0005306085347303354
0.0005637318722226023
0.0005950466195170623
0.0006228556789995193
0.0006446864088501672
0.0006569857521471477
0.0006548363163231462
0.0006324210665783879
0.0005965765607618079
0.000566271258764138
0.000545021886452034
0.0005189970330514622
0.0005257756134240794
0.0005313398179944024
0.0005001407599641378
0.0004263390207823754
0.0003340369549957751
0.0002569660990688818
0.0002074954828354951
0.0001826395499958669
0.0001738442857955728
0.0001695332029497965
0.0001590135498920981
0.0001381871051056456
0.0001092546104477974
7.696224786722943e-05
4.687137077679533e-05
2.401098765177106e-05
1.023474524680226e-05
3.650407567342593e-06
1.103358487930968e-06
2.893552975041303e-07
7.54831334387345e-08
5.402580962555458e-08
2.258715953099238e-07
1.434371462576481e-06
1.049628948581893e-05
8.699190210814918e-05
0.000445488391105666
0.001297803571608014
0.002867280193485325
0.005304689127568272
0.008701205333504601
0.009513407723989977
9.062658821463899e-16
1.303912765754213e-13
2.412448339241492e-12
1.760502548033352e-11
7.886392996645699e-11
2.64201113602511e-10
7.32461882932591e-10
1.780139230076035e-09
3.928649015186616e-09
8.052843867594954e-09
1.555905830224627e-08
2.861065366875169e-08
5.03765074170451e-08
8.524455041392041e-08
1.389162366667794e-07
2.183176134380052e-07
3.313584374011797e-07
4.866972829630084e-07
6.936993364824431e-07
9.626369823096632e-07
1.305000525747524e-06
1.733730014828385e-06
2.263267799010508e-06
2.909454661901688e-06
3.689360440045649e-06
4.621140379339543e-06
5.723971381639444e-06
7.018080816875828e-06
8.524852978790004e-06
1.026698764744627e-05
1.226868645467145e-05
1.455584897871147e-05
1.715626736846208e-05
2.009981345481692e-05
2.341861556099487e-05
2.714722373075816e-05
3.132276254302145e-05
3.598507032825676e-05
4.117682290928353e-05
4.694363896745645e-05
5.333416296313178e-05
6.040012017110208e-05
6.819633676339103e-05
7.678071601322588e-05
8.621415947357684e-05
9.656041927731161e-05
0.0001078858644008255
0.0001202591396622943
0.0001337506910913475
0.0001484321248202273
0.0001643753582430059
0.0001816515112608737
0.0002003294706502629
0.0002204740407341301
0.0002421435654565899
0.0002653868672383058
0.0002902392895977642
0.0003167175439031497
0.0003448129287048466
0.0003744822865902117
0.0004056357459436297
0.0004381197951797128
0.0004716934491600771
0.0005059940335687349
0.0005404872178164541
0.0005743931414650921
0.0006065767719546414
0.0006353868875977006
0.0006584282463781432
0.0006722684421754212
0.0006721508048298775
0.0006520820428978155
0.0006163959243136461
0.0005841523302921687
0.0005611770482505014
0.0005311649561865974
0.0005306651294033104
0.0005438730645655606
0.0005151296856486346
0.0004429555877707084
0.0003480316058984847
0.0002663318089335489
0.000212768048993817
0.0001850454968682529
0.0001746115266747674
0.0001698397541244539
0.0001596257280581583
0.000139261614879163
0.0001106010236906391
7.830973181146757e-05
4.797100918236164e-05
2.472664108128294e-05
1.060222688875932e-05
3.801545354954149e-06
1.154317424746356e-06
3.036572589643437e-07
7.879087841910308e-08
5.434283694012704e-08
2.24006592312322e-07
1.423135328590783e-06
1.043086187469333e-05
8.671524369742061e-05
0.0004451756156531719
0.00129794853310943
0.00286808466503244
0.005307132497651402
0.008709214439107823
0.00952615680136653
9.565705090799914e-16
1.381108530192558e-13
2.559438263618542e-12
1.86927481755965e-11
8.377366106049783e-11
2.807167289256155e-10
7.783186628066091e-10
1.891475683241229e-09
4.173394012491087e-09
8.550678153124707e-09
1.650896561042162e-08
3.032500713272918e-08
5.331660237205702e-08
9.004741713005525e-08
1.464004656970203e-07
2.294630509036596e-07
3.472720039782953e-07
5.085918205180221e-07
7.22905991460437e-07
1.000646341369887e-06
1.353508303647839e-06
1.794665489954638e-06
2.338799057653949e-06
3.001978458462478e-06
3.801489246930101e-06
4.755696722496259e-06
5.883994308825306e-06
7.206844767582639e-06
8.745896788817218e-06
1.052415079634859e-05
1.256615008566291e-05
1.489818005353172e-05
1.754846506570449e-05
2.054735748251259e-05
2.392751635403765e-05
2.772407466411408e-05
3.197479430910912e-05
3.672020760742883e-05
4.200374334674e-05
4.787183440182876e-05
5.437400266300939e-05
6.156291567388571e-05
6.949440776369299e-05
7.822745646372673e-05
8.782410286936902e-05
9.834930172174098e-05
0.0001098706837750876
0.0001224582087773284
0.0001361836823160296
0.0001511201032037292
0.0001673407997276977
0.0001849183021000521
0.000203922884056147
0.0002244206866370095
0.0002464713099998706
0.0002701247201109609
0.0002954172608333241
0.0003223664779354776
0.0003509643351336699
0.0003811682077115651
0.0004128887368082292
0.0004459731543250494
0.0004801819452022958
0.000515155555206447
0.0005503660788866981
0.0005850462609223027
0.0006180846699043005
0.0006478723004448627
0.0006720854760885717
0.0006874035986084533
0.00068921825910351
0.0006715798113460285
0.0006364667965775253
0.0006022655700277695
0.0005776009861486053
0.0005433238804112662
0.0005360204741923679
0.0005563857682569825
0.0005298427948842496
0.0004595491302363648
0.0003623433699248863
0.0002760460942006826
0.0002183014515252661
0.0001876335279290864
0.0001754852895597915
0.0001701705352285264
0.000160204040886219
0.0001402803697457645
0.0001118929082990043
7.961496821540199e-05
4.904528361809136e-05
2.543156795430026e-05
1.096691369057952e-05
3.952488340609682e-06
1.20548844032341e-06
3.18090386915783e-07
8.214805991691829e-08
5.468696099581168e-08
2.222255801038251e-07
1.412350636393909e-06
1.03681167401472e-05
8.645406734791408e-05
0.000444901593792279
0.001298156168761978
0.002868994637181792
0.005309686214238431
0.008717432905066306
0.009538779976385246
1.009088304126583e-15
1.461716062517405e-13
2.712960943584242e-12
1.982899461277518e-11
8.890293154265102e-11
2.979715537403188e-10
8.262260522940752e-10
2.00777235283057e-09
4.428955909046218e-09
9.070201909384999e-09
1.749930187426434e-08
3.210976101090668e-08
5.637131989882778e-08
9.502454950651289e-08
1.541317946073024e-07
2.409356738901563e-07
3.635921834387717e-07
5.30964352529205e-07
7.526477966403561e-07
1.039227133457131e-06
1.402593979547258e-06
1.856144398529136e-06
2.41478713657079e-06
3.094811539730959e-06
3.913714269799274e-06
4.890070632755299e-06
6.043494423970146e-06
7.394690332164422e-06
8.965579449252742e-06
1.077947135154408e-05
1.286125940759115e-05
1.523762283849921e-05
1.79372257546046e-05
2.09909081372497e-05
2.443186653453962e-05
2.829582346197057e-05
3.262118466635812e-05
3.744918303658285e-05
4.282400706623619e-05
4.879291073963721e-05
5.540630052384879e-05
6.271779362246002e-05
7.078424010365597e-05
7.966569949773058e-05
8.942536020544816e-05
0.0001001293872444592
0.0001118466804680698
0.0001246485213040306
0.0001386080806955615
0.0001537997545293133
0.0001702982843986394
0.0001881776106125759
0.0002075093900527355
0.0002283610920355861
0.0002507935583985865
0.0002748578762506895
0.0003005913569252931
0.0003280123338636725
0.000357113370207774
0.0003878522811264088
0.0004201400877703801
0.000453824571006713
0.0004886673922112097
0.0005243116599771242
0.0005602351633224606
0.0005956820673571701
0.0006295626302684669
0.0006603070943000894
0.0006856592155684961
0.0007024060900769803
0.0007060885434493553
0.0006908759922709778
0.0006566393818437952
0.0006206183023273464
0.0005942835567201766
0.0005563188792747377
0.0005423218240849382
0.0005688547316154764
0.0005442932293695454
0.0004760747641855023
0.00037694194560969
0.000286098815349827
0.0002240894406013016
0.0001903975201820999
0.0001764639703276246
0.0001705288140303983
0.0001607529923803158
0.0001412467810329566
0.0001131322647124518
8.087876981138137e-05
5.009411606774976e-05
2.612531684277867e-05
1.132842400778414e-05
4.103038470739516e-06
1.256795408582803e-06
3.326314923290512e-07
8.554883434673183e-08
5.505630262522805e-08
2.205244842226784e-07
1.401996715511532e-06
1.030793786258642e-05
8.620778216516443e-05
0.000444664930116456
0.001298424165887476
0.002870006190225455
0.005312350421332631
0.008725877491950376
0.00955128689469064
1.062552776003507e-15
1.543997813011514e-13
2.869872336121738e-12
2.099105289589542e-11
9.415045558720895e-11
3.156266423220873e-10
8.752429113476609e-10
2.126732496370349e-09
4.69023105317066e-09
9.600851324454953e-09
1.850940078522466e-08
3.392636635559407e-08
5.947181205681755e-08
1.000581356814182e-07
1.619173692282053e-07
2.524340864759876e-07
3.798696074079724e-07
5.531747864801462e-07
7.820509112889764e-07
1.077231585391978e-06
1.450801576722238e-06
1.916376896177623e-06
2.489093008095941e-06
3.185461083226501e-06
4.02319399326739e-06
5.021084789604512e-06
6.198976954310372e-06
7.577826925806973e-06
9.179837692014819e-06
1.102863668064488e-05
1.314947505819651e-05
1.556943266866039e-05
1.831761938302699e-05
2.142536824550894e-05
2.492641836306881e-05
2.885708665010299e-05
3.325642758466899e-05
3.816637966449291e-05
4.363189642126898e-05
4.97010587292818e-05
5.642516393637877e-05
6.385878582225191e-05
7.20597977598589e-05
8.108934948353273e-05
9.10117854524345e-05
0.0001018944900919487
0.0001138076416286119
0.0001268238521283523
0.0001410176660443873
0.0001564648830095467
0.0001732416622509448
0.0001914233551389213
0.0002110829981623018
0.0002322893794384614
0.0002551045655512461
0.0002795807384506353
0.0003057561390131397
0.0003336498356002849
0.0003632549188043629
0.0003945295454338578
0.000427384980478052
0.0004616693598900965
0.0004971452354866609
0.0005334579407899432
0.0005700902670678876
0.0006062966845148981
0.000641007348501772
0.0006726889882454857
0.000699149105756007
0.0007172799822137969
0.0007227820780984612
0.0007100347391669445
0.0006769774687806388
0.0006392149991175341
0.0006111839411642204
0.0005701438478545127
0.0005495044664140479
0.0005783212996845356
0.0005584931055242974
0.0004924890525597393
0.0003917866881745043
0.0002964688894598711
0.0002301178433560487
0.0001933267958425046
0.000177543520486146
0.0001709164852308603
0.0001612758317132287
0.0001421626026234097
0.0001143190823715647
8.209992033273357e-05
5.11157376933199e-05
2.680629812893729e-05
1.168576875990013e-05
4.252739038394813e-06
1.30807239455603e-06
3.472315084883805e-07
8.898120921612809e-08
5.544829019574969e-08
2.189022335527027e-07
1.392071169341618e-06
1.025032369006738e-05
8.597651298492593e-05
0.0004444659756477822
0.001298752818614013
0.002871118806138141
0.005315135014025137
0.00873458001491308
0.009563691594329756
1.117421184919939e-15
1.628548598251592e-13
3.031214020900595e-12
2.218626980728041e-11
9.954825184974466e-11
3.337862709246317e-10
9.256487047946698e-10
2.249006484476614e-09
4.95857635753401e-09
1.014521577100813e-08
1.954384674052229e-08
3.578245497472782e-08
6.263023444319333e-08
1.05167171494564e-07
1.697871890510879e-07
2.640070904497911e-07
3.96185588081775e-07
5.753585290189411e-07
8.113352388513417e-07
1.115003078705774e-06
1.498644276660935e-06
1.976097623530778e-06
2.56272727949692e-06
3.275268483146388e-06
4.13165355843804e-06
5.150897661084172e-06
6.353079089542481e-06
7.759411401764226e-06
9.392384622300495e-06
1.12759485817647e-05
1.343571602529816e-05
1.589917034568767e-05
1.869586927064933e-05
2.185764022686541e-05
2.541876554041382e-05
2.941615663243295e-05
3.388951636867435e-05
3.888148822593528e-05
4.443778996791044e-05
5.060732852368949e-05
5.744229138738435e-05
6.499820840074073e-05
7.333397606691941e-05
8.251183454560336e-05
9.259728505748373e-05
0.0001036589325599411
0.0001157682351542907
0.00012899913725296
0.0001434275584222269
0.000159130703106063
0.0001761861481055573
0.000194670653843181
0.0002146586313956577
0.000236220178362479
0.0002594185707373074
0.000284307061959114
0.0003109247884036697
0.0003392915052017365
0.0003694007632312902
0.000401210967629093
0.0004346334962832456
0.0004695166525781095
0.0005056236014541094
0.0005426014770521071
0.0005799374016286763
0.0006168950619263369
0.0006524227287828695
0.0006850207484170333
0.0007125560334867756
0.000732020651101636
0.0007392722294920792
0.0007289161667518809
0.0006973545054745021
0.000658112666140264
0.000628293204459196
0.000584460705819039
0.0005571546030990676
0.0005823048928355329
0.0005724608584881466
0.0005087567621808513
0.0004068379552797217
0.0003071380141055644
0.0002363750267252529
0.000196411846984694
0.0001787196274744764
0.0001713348569713445
0.0001617757781654284
0.000143030179531922
0.0001154542627007196
8.327817047765381e-05
5.210919584824722e-05
2.7473457443516e-05
1.203822792807203e-05
4.401239826113019e-06
1.359187734103537e-06
3.618504888041757e-07
9.243517469165103e-08
5.586050985575881e-08
2.173565886778036e-07
1.382564532439406e-06
1.019522851861624e-05
8.576014650669682e-05
0.0004443048914581909
0.001299142963847809
0.002872332978921578
0.005318060431923619
0.008743597423506331
0.009575979146037503
1.174612572723638e-15
1.716669956345424e-13
3.199377780118459e-12
2.343205912746525e-11
1.051743055062089e-10
3.52711863306342e-10
9.781688130825355e-10
2.376357942555066e-09
5.237880445407083e-09
1.071124004788279e-08
2.06178847768323e-08
3.770572981073425e-08
6.589449443270255e-08
1.104307256354162e-07
1.778660310915209e-07
2.758432314776843e-07
4.12813303801863e-07
5.97895756637584e-07
8.410103420885262e-07
1.153201877010843e-06
1.546952804902945e-06
2.036325958665239e-06
2.636914763770285e-06
3.365679493354204e-06
4.240773920988706e-06
5.281438342140692e-06
6.507989533181364e-06
7.941901902120774e-06
9.605955820722645e-06
1.15244261062923e-05
1.37232887809068e-05
1.623043159513222e-05
1.907586012093921e-05
2.22918954523296e-05
2.591336185134049e-05
2.997776353542099e-05
3.452544976944624e-05
3.95997668301271e-05
4.524719449230356e-05
5.151746353955202e-05
5.846364951995104e-05
6.614223640732097e-05
7.461314210764874e-05
8.393969569342814e-05
9.418855380403207e-05
0.0001054295407463239
0.0001177353932843967
0.0001311813868088497
0.0001458448141574211
0.0001618042818900678
0.0001791387802483329
0.0001979264724486182
0.0002182431348327563
0.0002401601608964694
0.0002637420167819522
0.0002890430005633995
0.0003161031074383197
0.0003449427296218673
0.0003755558112766594
0.0004079009148503177
0.000441889405544077
0.0004773695761293404
0.000514104943360072
0.0005517440429756532
0.0005897776952276856
0.0006274777667260601
0.0006638089090909466
0.0006973021584089695
0.0007258789329010972
0.0007466230525509583
0.0007555365109293784
0.0007474295425793419
0.0007176384719773872
0.0006773384282850621
0.0006456008879375099
0.0005990303553636071
0.0005649988578988724
0.0005858531325809885
0.0005862292873739872
0.0005248520907133995
0.0004220583102385005
0.0003180903875924828
0.0002428516403633735
0.0001996444115038897
0.0001799879624546106
0.0001717847768177654
0.0001622559253082372
0.0001438522012922395
0.0001165393155954933
8.441394346657524e-05
5.307412268462511e-05
2.81261343389258e-05
1.238528395549065e-05
4.548272171356299e-06
1.410036394958255e-06
3.76455664447381e-07
9.590230631804886e-08
5.629071873278346e-08
2.158846147197009e-07
1.373462987495033e-06
1.014257809256213e-05
8.555836873420181e-05
0.0004441811954637179
0.001299594163367537
0.002873645382942021
0.00532120356977415
0.008753016048882562
0.009588146113482913
1.233898419695597e-15
1.808023792962691e-13
3.37373093204074e-12
2.472378844404793e-11
1.11007881828275e-10
3.723341714631272e-10
1.032611979375499e-09
2.508322971145797e-09
5.527116155179305e-09
1.129679204115609e-08
2.172728940078604e-08
3.968810917651364e-08
6.924963094487539e-08
1.158220911926256e-07
1.861082588723475e-07
2.878683338381641e-07
4.296383489377677e-07
6.206187422970528e-07
8.708416262813002e-07
1.191513772197661e-06
1.595322857939652e-06
2.096560564551395e-06
2.71105439181164e-06
3.455994753233095e-06
4.349762234727942e-06
5.411827529059823e-06
6.66275057643668e-06
8.124270384486794e-06
9.819460312268558e-06
1.177292170992162e-05
1.401099448229835e-05
1.656197061068834e-05
1.945630289418309e-05
2.272680520085526e-05
2.640884274653759e-05
3.054051162532741e-05
3.516280674610068e-05
4.031977668144554e-05
4.605866295652856e-05
5.243002019294708e-05
5.948781215343382e-05
6.728947716613087e-05
7.589595467029856e-05
8.537166248296509e-05
9.578441198449416e-05
0.0001072052453231744
0.0001197081753047126
0.0001333698041609101
0.0001482687920270135
0.0001644851392843504
0.0001820992385958384
0.0002011906416742032
0.0002218364719895359
0.0002441093962299217
0.0002680750424716433
0.000293788718501341
0.0003212912348560367
0.0003506035663182101
0.0003817199808545722
0.0004145991078407628
0.0004491521786404895
0.0004852273071142752
0.0005225881178339434
0.00056088417819904
0.0005996094208737062
0.0006380429302496116
0.0006751641120422812
0.0007095318849409516
0.0007391172497237266
0.0007610869514801635
0.0007715706480063393
0.0007655476668329327
0.0007377352943467532
0.0006968138830295548
0.0006630861550359609