/*--------------------------------*- C++ -*----------------------------------*\
| =========                 |                                                 |
| \\      /  F ield         | OpenFOAM: The Open Source CFD Toolbox           |
|  \\    /   O peration     | Version:  v1812                                 |
|   \\  /    A nd           | Web:      www.OpenFOAM.com                      |
|    \\/     M anipulation  |                                                 |
\*---------------------------------------------------------------------------*/
FoamFile
{
    version     2.0;
    format      ascii;
    class       volScalarField;
    location    "1792";
    object      omega;
}
// * * * * * * * * * * * * * * * * * * * * * * * * * * * * * * * * * * * * * //

dimensions      [0 0 -1 0 0 0 0];


internalField   nonuniform List<scalar> 
11031
(
26.15189071799856
24.83488960856144
23.62905958596616
22.52451240785881
21.51272076550304
20.58639476037382
19.7394020502698
18.96673600813777
18.26454169194814
17.63021803048194
17.06262858513364
16.56247682614762
16.13294332115825
15.78075797751329
15.51802480170271
15.36540490857546
15.35787170451578
15.55561923702553
16.06600593858862
17.0910219008199
19.03136255880979
22.19647172551697
26.47128413171967
32.27167811560514
40.03133003721054
49.56769103690106
59.9875831449334
68.8693353133785
71.47967121513734
64.30630913542008
50.98562350609477
37.38756603097529
26.24398007424558
18.09958880038441
12.63510325432495
9.108671089743478
6.788210634066485
5.178644747985511
4.015743947127485
3.179830484396262
2.610642090336479
2.251640238055766
2.037681585913503
1.909716996888743
1.827056982861692
1.767455248644305
1.720722900495022
1.682655074852335
1.651585046198773
1.627997992596651
1.625575208361742
1.82191739621743
3.010401885590978
5.667415223862161
9.161596967967617
13.47678510724748
20.35583141074076
41.81686981021727
29.32410880317518
27.74117054235741
26.294354365692
24.97050179581302
23.7581940876985
22.64753717917899
21.62999370387876
20.69825777589724
19.84617295714628
19.068696896167
18.36192152068535
17.72316574524937
17.15117058403572
16.64644823845279
16.2118745614839
15.85368294628085
15.58314744526962
15.41949987794746
15.39516271155855
15.56557525662939
16.02875713009134
16.96722729647833
18.74520107802914
21.71511249642607
25.80513967180948
31.28393615622866
38.64549332957325
47.8190988982235
58.0372105826437
67.18852034203429
70.88684609964402
64.99194294019158
52.18020254098216
38.49685537331015
27.09725132299416
18.68163701554929
12.99573212314631
9.321688291608048
6.914488132040576
5.256680826024734
4.066073993555976
3.21220531171871
2.630244360740924
2.262494393575007
2.043237991927004
1.912465320774116
1.828448232627815
1.768191486429676
1.721102576764087
1.682803572079419
1.651560024821107
1.627820678415465
1.625154102505332
1.820624480643183
3.007234045419445
5.662495796016245
9.156421506585962
13.47120390322624
20.34479979287318
41.77592753957951
33.1365247182837
31.22495567951731
29.48256167634275
27.89184998739242
26.43766079458065
25.10683741165993
23.88795883645825
22.77112455441105
21.74778585384297
20.81061995424727
19.95344631895965
19.17118824004112
18.45988785717836
17.81679032599427
17.24052484269031
16.7314302115584
16.29210728040745
15.92834295617278
15.65066749861792
15.47703631561131
15.43760212076592
15.58358771188828
16.00474202903707
16.86623470289797
18.493811491075
21.27750012749829
25.2063002243567
30.3968639384166
37.38305881607579
46.20319877469649
56.1877505993184
65.50335613700913
70.13865435401969
65.52030153263995
53.30270697760012
39.57916759680163
27.94064714369419
19.26318353654786
13.35870433185705
9.536563005983691
7.04148102700854
5.334622713140452
4.116019833823997
3.24424806687651
2.649657527138039
2.273258520618298
2.048746643070856
1.915178856297688
1.829809565751388
1.768902468421019
1.721462202753967
1.682936963367474
1.651524160368419
1.627636566168696
1.624734110240506
1.819381482765183
3.004297088535223
5.657979563257638
9.15163647350519
13.46595156658086
20.33390103175519
41.73532757595851
1196166.289428609
224090.8677327517
78801.07360710252
37809.051826772
21553.68890881342
13657.61696479405
9282.710671719457
6628.386504795964
4908.942878828514
3739.367640632453
2913.551045701119
2313.138628813555
1866.130654102564
1526.535144311251
1263.737728377539
1056.695276284035
890.6587597958489
755.2445647684356
643.1972778473502
549.4909752367826
470.6227866350914
404.0688060620382
347.9015638511873
300.5513314579413
260.6770687238864
227.1093918958933
198.8293149273094
174.9583664767167
154.749615214163
137.576346226328
122.9184078502629
110.3474936785825
99.5126849977746
90.12717565176733
81.95664965189194
74.80943815721518
68.52837188759887
62.98413986957374
58.06992949462423
53.69712636426481
49.79187477687694
46.29232909030956
43.14645574676044
40.31027254777595
37.74643466537557
35.42309570401225
33.31298786176263
31.39267455702547
29.64194408216181
28.04331515410193
26.58163380924269
25.24374427113438
24.01822175728491
22.89515779310552
21.8659914941326
20.92338302484745
20.06112838870909
19.27411825044964
18.55834828742332
17.91099565739673
17.33058732957358
16.81730450421077
16.37349915220678
16.00455558417104
15.72033571480103
15.53765213025122
15.48463282348015
15.60875146146062
15.99241140539225
16.78529240573649
18.27728021945663
20.88420261762628
24.66293457189201
29.59814971105335
36.23532740213396
44.71201107111409
54.44353548351819
63.83568779632522
69.26074487425045
65.89168899670504
54.34819820555887
40.63211717447776
28.77212999818439
19.84248634445298
13.72297821075194
9.752768332285353
7.168950562193213
5.412361833024124
4.165519516519482
3.275914263023848
2.668850016028199
2.283913236353753
2.054197455579278
1.917853059877198
1.831139092097437
1.769587376181849
1.72180136091581
1.683054994824997
1.651477278508017
1.627445515295956
1.624315032357689
1.818187954620263
3.00159028161385
5.653865340555446
9.147242337487505
13.46104110932558
20.32313004195091
41.69508059969954
1192565.561947796
223096.6239758478
78398.25324067287
37602.36370353093
21431.58639755818
13578.83854299551
9228.91249747282
6590.286005505074
4881.369826213504
3719.215390495292
2898.826189729199
2302.478650273512
1858.542029406363
1521.247011178694
1260.124299341929
1054.243365069638
888.9627107496274
754.0099779607095
642.2371347045746
548.7072031685491
469.9774772953579
403.5544104588413
347.5180123074882
300.2943944378305
260.5366348306979
227.0713880305137
198.8776365812833
175.0765383258847
154.9220868774995
137.7892916216358
123.1600720445715
110.6082186290939
99.78474686958984
90.40453436326433
82.23467550536762
75.08465169234066
68.79821391349633
63.24677712317334
58.32409510786093
53.94199145472152
50.02694649856608
46.51737044163732
43.361422959054
40.51526644672688
37.94166303758953
35.60884426790226
33.48959741932735
31.56052455785557
29.80143982618303
28.1948780230182
26.72569341555342
25.38073241304008
24.14856755876095
23.01928349230558
21.98430833715413
21.03628664682854
20.16899287263131
19.37728772233634
18.65712431506477
18.00561770579678
17.42120177349517
16.90391460147702
16.4558827894266
16.08212716828295
15.79190834479395
15.60101507059199
15.53577094857391
15.64033006455546
15.99064163921095
16.72288664048535
18.09579021132926
20.53529668338784
24.16606097079249
28.87722625552505
35.19128781786389
43.33602150830085
52.80868427115596
62.20509203617828
68.27919634171121
66.11043560904697
55.31217498055119
41.6535875481396
29.59003653476629
20.41799504842199
14.08758206606176
9.969801993350504
7.296668647289783
5.489798161026737
4.214519374882304
3.307166199650316
2.687794749021245
2.294441658777559
2.059581600517317
1.920484022840258
1.832435286820671
1.770245634658239
1.72211980849359
1.6831575397831
1.651419296223086
1.627247446791689
1.623896687037649
1.81704320141024
2.999111629703409
5.650149751471587
9.143237691633047
13.45648332524445
20.31248107069167
41.65519097254856
1189183.157612826
222163.9917617817
78020.66697304435
37408.72265466211
21317.25861953697
13505.14231931085
9178.658691802098
6554.779387768845
4855.767705868892
3700.606225300872
2885.338096752307
2292.826769092591
1851.783108714451
1516.64332420443
1257.073294447349
1052.25041884675
887.6390111423221
753.0766340182059
641.5199054516766
548.1167664900454
469.4810840355953
403.1485277406209
347.2083848101208
300.0849386133881
260.4253364197103
227.0503949480917
198.9351477458259
175.1989704803227
155.0958060386141
138.0017230570829
123.4002635974116
110.8670157525309
100.054731992943
90.67984567266393
82.51077988417755
75.35811530416481
69.06649239512197
63.50803423742354
58.57705146841163
54.18580124237295
50.26109859655774
46.74161004191399
43.57568990145755
40.7196470425724
38.13635260676631
35.79411813949027
33.66578856512473
31.72800641966872
29.96061317548596
28.34616091738972
26.86951348354568
25.51752084970818
24.27875429419785
23.14329303868081
22.10255580775966
21.14917336582379
20.27690082932184
19.48057181761415
18.75610081908083
18.1005464315842
17.51225789361001
16.9911432653198
16.53912471534139
16.16089414895005
15.86516985040182
15.66682145786904
15.5905631920111
15.67761529088126
15.99829926115136
16.67728099865801
17.94782680429159
20.23002478695845
23.70912176563741
28.22452108491444
34.2400853458022
42.06333703702034
51.28196075979378
60.62819532231811
67.21929061914135
66.1834652551796
56.19104384735601
42.64193777290306
30.39328557651601
20.98853347728464
14.45173537758363
10.18725846453197
7.424459254820947
5.566864574327813
4.262989036953653
3.337982535085236
2.706475117962214
2.304832885151844
2.064893380348958
1.923069451813233
1.83369752425872
1.770877233612667
1.722417690802788
1.683244747717529
1.651350326525215
1.627042411883176
1.623478919329755
1.815945884137886
2.996855992129438
5.646824288521995
9.139616397950219
13.45228360736117
20.30194299963293
41.61565895233755
1186011.583487225
221290.6644438393
77667.3305162012
37227.60497764425
21210.38392441858
13436.30943920742
9131.78774122329
6521.738630333561
4832.027986905458
3683.442014328307
2872.992562258441
2284.087782749119
1845.75385016094
1512.616413898291
1254.467873314536
1050.590454915202
886.5544650304478
752.3081571740934
640.9121541462608
547.5968208375848
469.029045557538
402.770135094507
346.9156742553189
299.8859170418033
260.3205730869256
227.0336371312695
198.9955680871037
175.3235676169029
155.2712847800771
138.2156979858558
123.6418811788767
111.1271665126451
100.3260132652279
90.95639488378607
82.78805634452769
75.63267588635156
69.33578445812039
63.77021555219795
58.83083934648167
54.43034918204816
50.49589708967584
46.96640777305029
43.79043167981456
40.92442524838635
38.33136941801786
35.97965628396778
33.8421887750393
31.89565012478545
30.11990926668754
28.49753564465584
27.01340272968872
25.65436415947242
24.40899012428347
23.26735473890547
22.22086784258411
21.26214722353589
20.38492992139818
19.58402439268925
18.85530943940527
18.19579173220177
17.6037429215111
17.07895220167779
16.62315532464107
16.24074508853455
15.93994833115971
15.7348056866147
15.64858923245593
15.71991458744303
16.01417269436895
16.64611748818113
17.82747479096081
19.95928824718161
23.28473011375046
27.63289747872949
33.37393116288627
40.886598815659
49.85709125452205
59.11459816977234
66.10452736753135
66.11985806439191
56.98193868263741
43.59562393098685
31.18105767808748
21.55310199517051
14.81473093972961
10.40476021194993
7.552156986558783
5.643500025533066
4.310903397695538
3.368346370022461
2.724877603783594
2.315077794812068
2.070127990340399
1.925607475594086
1.834925392725019
1.771482289600607
1.722695238141801
1.68331682765791
1.651270524198301
1.626830490108357
1.623061586744503
1.814894556881131
2.994817492747056
5.643878794306977
9.136370103644419
13.44844292919366
20.2914988905991
41.57648699146357
1183038.951259914
220473.157808437
77336.80161500505
37058.26957323026
21110.53042898773
13372.06853699999
9088.121182271349
6491.043070086307
4810.067523232128
3667.664243028119
2861.746825686213
2276.228220086621
1840.425344361549
1509.138725605372
1252.280143672064
1049.234984408501
885.6808463310672
751.6780526950228
640.3906740040807
547.1287009108116
468.6079609819214
402.411211194264
346.6368080097402
299.6983893773003
260.2265373976613
227.0274391743498
199.0664750431586
175.4584607425848
155.4566964174006
138.4390876923524
123.8922835338038
111.3954061459315
100.6046609524425
91.23959143605528
83.07128539444295
75.91253213573404
69.60976086862887
64.03651914722799
59.08823748955405
54.67804435196457
50.73342655922868
47.193564181611
44.00720069601135
41.13093696987097
38.52786069441588
36.16644164574949
34.01963810353768
32.0641715729165
30.27993624829651
28.64951695192281
27.15779502856938
25.79162623896523
24.53957838362049
23.39171943610794
22.33944963640559
21.37537348105007
20.49321013838279
19.68774382007052
18.95481957077878
18.29139555918791
17.69567157011884
17.16732730814905
16.7079274915524
16.32159140825087
16.01609805879174
15.80473582984246
15.70947568680824
15.7666028583794
16.03715280245344
16.62730309256061
17.73080958136716
19.72059776445604
22.89048432492175
27.0942337917075
32.58470361817457
39.79847806461891
48.52669491772326
57.66984655757538
64.95645821224419
65.93041513234472
57.68274524121724
44.51310902023399
31.95270532438336
22.11083703448007
15.17591400341297
10.62194630260857
7.679600004861248
5.719644741677465
4.358239246049944
3.398242962335971
2.742990372741951
2.325168267162474
2.075281110826821
1.928096431612288
1.836118572653563
1.772060968096468
1.722952711989825
1.68337400996902
1.651180058778342
1.626611771647029
1.622644557793952
1.813887790901742
2.992990198214908
5.64130283952484
9.133489975114658
13.44495916412398
20.28112752091768
41.53767787330077
1180258.878093613
219709.507262945
77028.22632136873
36900.24409015792
21017.38931090603
13312.19013604274
9047.469349036983
6462.521396224618
4789.720557130197
3653.104819406968
2851.425965182225
2269.064717905253
1835.606922594474
1506.016060356867
1250.318418205801
1048.002259351907
884.8537736208575
751.0452394676392
639.8410374654661
546.6250627799487
468.1554619194618
402.0305593450724
346.3472239103679
299.5099678120034
260.139151381883
227.0329867001558
199.1520934759396
175.6093939585842
155.6583288017334
138.6781385822554
124.1573540700054
111.6771022294979
100.8954762869426
91.53367793033865
83.36418894006025
76.20093634069828
69.89125870804044
64.30941931033682
59.35140525451321
54.93077353120852
50.97533795863954
47.42452591951925
44.22726614467643
41.34029672328753
38.72680556990935
36.35533432543027
34.19889149074894
32.23423235547013
30.44127247354337
28.80260867414813
27.30312727952534
25.92968371809793
24.67084134940041
23.5166603471752
22.45853009003369
21.48904095753761
20.60189393542921
19.79184934204673
19.05471973347732
18.38741738303105
17.78807485854135
17.25627025149978
16.79341039311191
16.40336308460216
16.09349697640413
15.87641366984568
15.77290142129645
15.81713939854632
16.06625929418799
16.61884689697364
17.65304764539314
19.5104265399315
22.5266227332223
26.60146137798561
31.86398172860174
38.79308581765375
47.28336625094035
56.29424048172195
63.79257428868838
65.62745629198464
58.29224680782775
45.39295543803088
32.70781449825753
22.66108010965138
15.53473336453423
10.83850402657339
7.806648748310862
5.795251141538809
4.404981882619328
3.427663901547573
2.760805873317342
2.335098702191109
2.080349737349098
1.93053530492825
1.837277078153237
1.77261363002265
1.723190502890684
1.68341661515197
1.651079163267361
1.626386389548774
1.622227717450799
1.812924009333096
2.991367405359588
5.639084931150443
9.130966171715766
13.44182541988266
20.27079986723072
41.49923586551768
1177660.223374523
218996.4579142304
76740.2192510298
36752.76535881552
20930.45725849463
13256.29591828035
9009.52076546456
6435.902394877157
4770.744832404213
3639.547462058417
2841.841534513597
2262.441207281547
1831.180449976917
1503.173254807603
1248.553543276192
1046.908887191338
884.131369839149
750.5013394089555
639.377823819788
546.2122292829829
467.7995206976412
401.7500258511338
346.1576131160039
299.4176938185503
260.1412695694138
227.1196938146414
199.3098360021318
175.823477600578
155.9146781958565
138.9642662351666
124.4627478170262
111.9932483490859
101.2156874384906
91.852838439813
83.67848377371295
76.50759817124613
70.18834787302123
64.59564029016501
59.62595776654492
55.19323397501604
51.22556622173416
47.66259284244861
44.45339748102936
41.55483010116059
38.93015763026426
36.54797576667594
34.38132824080769
32.4069914580586
30.60489160158159
28.95762840465323
27.450085444452
26.06911127822249
24.80325932696752
23.64257739402621
22.57844028303617
21.60342136337875
20.71120138105225
19.8965156112163
19.15514405033961
18.48395440837442
17.88101534508709
17.34580963303955
16.87959725722127
16.48601344429356
16.17204894195546
15.94967513104842
15.83859874325508
15.87108013228186
16.10070835859842
16.61920865800453
17.59069213649906
19.32685762373475
22.19468808268048
26.14767236087368
31.20386343966141
37.86456798417225
46.11958887857396
54.98785911931849
62.62805622831014
65.22401279716458
58.81020079896394
46.2337119305619
33.44605811931396
23.20328803537026
15.89069055383431
11.05414031500437
7.933169615457407
5.870274040417637
4.451118934507065
3.456603237785157
2.778318574784664
2.344864806601361
2.085331561720842
1.93292340772929
1.838401074904846
1.773140715057991
1.723409048971318
1.683444995218534
1.650968091963974
1.626154491442758
1.621810959174736
1.812001582602127
2.989942340179047
5.637214087709402
9.128788722628491
13.43902788157022
20.26047313004138
41.4611727215172
1175178.482120471
218316.2430654235
76465.65491691117
36612.25160723353
20847.69162095588
13203.14017071285
8973.496541066439
6410.706791524575
4752.867214253664
3626.868469616468
2832.982155796371
2256.432365184633
1827.286451701635
1500.799811724519
1247.208851003771
1046.197735844066
883.7623914300314
750.2884759713229
639.2261170897489
546.0909373193199
467.7127510935352
401.7135619888364
346.1851387959514
299.5152335216291
260.3068899512011
227.3456411857966
199.5851965203425
176.1363966770674
156.2538451430174
139.3197221639292
124.826200385308
112.3580802273438
101.5768027175944
92.2064419830247
84.02184914068083
76.83885256544079
70.50628608041174
64.89957035657085
59.91557647640994
55.46852829106422
51.48673636144565
47.90999288275148
44.68748991111148
41.7761513174005
39.13929196247127
36.74553608582934
34.56794163295281
32.58328877443874
30.77149994803536
29.11516584585333
27.59915734774834
26.2103078288047
24.93715382214577
23.76972496329279
22.69937667744353
21.71866141919535
20.82123665293144
20.00181047607242
19.2561292385842
18.5810163408333
17.97447865692265
17.43590854916023
16.96642844962473
16.56945750837142
16.25163736196092
16.02435970254319
15.90634010872574
15.92808611076251
16.13995784579842
16.62742176937059
17.54164102251722
19.16512515928136
21.8888940783654
25.72863937511756
30.60022451651921
37.00769179262765
45.02900646534157
53.75311958369815
61.47742816580603
64.7341231219453
59.23698518787474
47.03292434820054
34.16604566264352
23.73612813397588
16.24273604066568
11.26821567619453
8.05881965739882
5.94454060816502
4.496558472328164
3.485004950544758
2.795492222791685
2.354444570676727
2.090214707874517
1.935255002699723
1.8394879333388
1.773640954754917
1.723607643957493
1.683458698249285
1.650846531325816
1.625915851200012
1.621394121285596
1.811120902503678
2.988717516758044
5.63569306137371
9.126957535496148
13.43654999790876
20.2500922129079
41.42351232967725
1172836.282971282
217674.9313438566
76206.95855301699
36479.95074123918
20769.84797008241
13153.23607237285
8939.77593548243
6387.232067324189
4736.329427609707
3615.266367985699
2825.008179795543
2251.161265339487
1824.009766636381
1498.941270927435
1246.290773699811
1045.838441061888
883.6843434672026
750.3186949503225
639.2803972566472
546.1462064476261
467.7780454858321
401.8077793474708
346.3241792266818
299.7070466978105
260.5514521062452
227.6371405360355
199.9146336825961
176.4937210635064
156.6293755687969
139.7049218340502
125.213985723829
112.7428416675817
101.9542730112776
92.5735009603238
84.37631666245827
77.17929626776389
70.83185506915622
65.20985743204504
60.21050727538108
55.74827383179759
51.751645102129
48.16053855087286
44.92423185210353
41.99970464686999
39.35030531378328
36.94467521372135
34.75587747887218
32.76068893426238
30.93902269908649
29.27345608052218
27.74884390008301
26.35200178070716
25.0714474405227
23.89719095211115
22.82056743123712
21.83410791641058
20.93144653544057
20.10726467224108
19.35727617502856
18.67826224963624
18.06817157591355
17.52631203882781
17.0536782860785
16.65348961775316
16.33206597441212
16.10026677090719
15.97590087971104
15.9878789188783
16.18363244861424
16.64297669809641
17.50542793375973
19.0273348565411
21.61121606688786
25.33842699148331
30.0473956381112
36.21756118642898
44.0070477893971
52.58992444593414
60.35246245359491
64.17197113060715
59.57436977855033
47.78871929471146
34.86691128466628
24.25870643442913
16.59008203610276
11.48023295485194
8.183333938081384
6.017924405303599
4.54123899854604
3.512833587658411
2.812303748283601
2.363823662858616
2.094991405668757
1.937526489532077
1.840536201789612
1.774113806500561
1.723786073341411
1.683457620330988
1.650714414540869
1.625670406520119
1.620977077291455
1.810281642667235
2.987692390741409
5.634520816295898
9.125468077499207
13.4343867047493
20.23956761363392
41.3862706890452
1170642.115209769
217074.7086030162
75964.94862130482
36356.22939487486
20697.09235297354
13106.64102152739
8908.348574544254
6365.421302994647
4721.040662184565
3604.624974314715
2817.784594354313
2246.479626729895
1821.193939346753
1497.437861690178
1245.640872444985
1045.678157951164
883.7535808478956
750.4602516737305
639.4224903858284
546.2740904384668
467.9054653114766
401.9558630893515
346.5097416264649
299.9384732638831
260.8291292263157
227.9558028851763
200.2659624536859
176.8684149554102
157.0185007155177
140.1006349536403
125.6098142625708
113.1336944012531
102.3363103386915
92.94394827948194
84.73326868922373
77.52153655446364
71.1587006230625
65.52103052152559
60.50603258439657
56.02839760636327
52.01677251559455
48.41118575924148
45.16098968019561
42.22321136173799
39.5612264286829
37.14368869120496
34.94366306291334
32.93792060415421
31.10636348195446
29.43155460896276
27.89833224220836
26.49349415054339
25.20553946636728
24.02445920565036
22.94156892065246
21.94937921229094
21.04150210298354
20.2125938247349
19.45833776672669
18.77547574044674
18.16190225906553
17.61684678760795
17.14118565058547
16.73795357400986
16.41317424409911
16.17721856105426
16.04706676788692
16.0501781108486
16.23134216813424
16.6653289142785
17.48141838970352
18.91355856905468
21.36231939022466
24.972800241617
29.54009677660737
35.48922770719916
43.05194096250021
51.49455230323871
59.25999581597431
63.5512092183688
59.82540538815059
48.49972181714598
35.54818271922368
24.77048014737549
16.93215540334267
11.68981169479555
8.306510170155597
6.09033478009608
4.585121651098719
3.540068724365079
2.82873966567555
2.372993330478422
2.099656858199691
1.939735793952409
1.841545249316511
1.774559220490239
1.723944450647032
1.683441887273657
1.650571836728983
1.625418202377426
1.620559723832624
1.809482934862202
2.98686362605429
5.633691339880457
9.124289256806254
13.43224895541062
20.22875685219326
41.34948100934368
1168589.711639797
216513.7570255238
75738.87597982027
36240.7009239365
20629.19622423103
13063.2088658331
8879.118181714686
6345.213137662879
4706.967540834819
3594.935809439396
2811.326458747843
2242.425112588854
1818.897856218127
1496.367297504742
1245.351970971018
1045.819794897474
884.077156901595
750.8182680072969
639.7503200282632
546.5616014961448
468.1692292119031
402.2190015534422
346.7909286536648
300.2481333941185
261.1698843169783
228.3246900411262
200.6568769937125
177.2740632893791
157.4316870052777
140.5149681881775
126.0200037815192
113.5355925115732
102.7268203883214
93.32087514793336
85.09515627053082
77.86751529130382
71.48835496140981
65.83428888499188
60.80307878377656
56.30960101183796
52.28263389795712
48.66229583433689
45.39799773570167
42.44680178773686
39.77210136977346
37.34255542117224
35.13122496562557
33.11487089586353
31.27338099586034
29.58930112119763
28.04745091052119
26.63460872777808
25.33925399416917
24.1513579223239
23.06221610973774
22.06431868202284
21.15125590383264
20.31765965375808
19.5591842445288
18.87253429163718
18.25555356335489
17.70739844964111
17.22883543955641
16.82272847006258
16.49482796781478
16.25505588814515
16.11963451211523
16.1147038577847
16.28267360711818
16.69383012487509
17.46855139713384
18.82200554364494
21.1412873779353
24.63061418090998
29.07384674833441
34.81782489193584
42.16070688209615
50.46317166911591
58.20444856084636
62.8843709224511
59.99309343900011
49.16485378723177
36.20946023641121
25.27101197152257
17.2684417084946
11.89659561731813
8.428154818200364
6.161684356272511
4.628169678609646
3.566691834713792
2.844787986864372
2.381945770758374
2.104206768046302
1.941881072796777
1.842514549364044
1.774977199481715
1.724082920403947
1.683411645032795
1.650418906432883
1.625159292765884
1.62014196302285
1.808723873639974
2.986227616045951
5.633197952802797
9.123424914999465
13.43010712072268
20.21651877249341
41.31322067204493
1166661.698634418
215987.277287964
75526.83863724912
36132.44064577347
20565.66758783708
13022.67661231183
8851.958140591918
6326.567901531045
4694.127047230971
3586.251581683124
2805.706293723297
2239.077364941346
1817.198230592735
1495.795939229529
1245.475396420985
1046.297612573293
884.672484125145
751.3952110283967
640.2543847517635
546.9907219043691
468.5461856423346
402.5718104178133
347.1423244050264
300.6120469231463
261.5520033870043
228.7247041060846
201.0709240294998
177.6966966718047
157.8571941843534
140.9381235678916
126.436415707449
113.9417965554455
103.1202330129706
93.69968280587364
85.45818434186678
78.21410045058835
71.81823189240961
66.14749492103697
61.09987635587284
56.59041606493288
52.54800784334887
48.91284858878161
45.63439964801869
42.66975256885669
39.98231449503577
37.54074676253055
35.31810468433466
33.29113781832175
31.43971886722886
29.74637626078882
28.1959108870304
26.77508173935438
25.47234868542751
24.27766339123724
23.18230185214684
22.17873418994463
21.26052955209975
20.42229636903389
19.65966120078924
18.96929345877658
18.34898922922468
17.7978366246389
17.31649994979582
16.9076848032291
16.57688909837764
16.33362141514171
16.19340922759512
16.18119045871906
16.33722452161548
16.72779765487255
17.46550154666394
18.74960521088319
20.94582578129122
24.31043858318107
28.64464615661124
34.19899701166387
41.32973311438056
49.49227920715236
57.18863499305405
62.1829149650237
60.08084475343527
49.78296792788104
36.85007076730678
25.75968040899681
17.59828815621428
12.10013149799976
8.548011694092112
6.231846086232415
4.670321531869686
3.592669042231654
2.860427404679336
2.39066778654127
2.108633894432822
1.94395891718939
1.843442707718061
1.77536721911751
1.724201276643315
1.68336679460117
1.650255559761494
1.624893618741835
1.619723684116904
1.808004213246768
2.985783595397997
5.63303775681746
9.122877098531502
13.42811378181909
20.20381997925954
41.27734135553283
1164876.520385441
215500.1581080169
75330.71887654575
36032.34116457158
20506.96866618759
12985.28085261613
8826.969688513636
6309.496985267449
4682.466327217698
3578.471249973081
2800.786216398427
2236.270720806085
1815.909705062267
1495.526458283389
1245.809328099049
1046.91228124832
885.3487704535311
752.0135382177563
640.7735670562374
547.4184179143439
468.9117224042894
402.9074135791503
347.4734122610398
300.9542956860906
261.9122666698711
229.1034577769157
201.4648229232475
178.1006089569687
158.2655688506033
141.3457830876924
126.8389366643292
114.335630252747
103.502680677043
94.06880064095529
85.8126637070238
78.55314768825477
72.14145956699609
66.45482890578285
61.39147926421365
56.86662569536554
52.80928856593309
49.15975349143753
45.86754141916473
42.88978136216728
40.18990130960076
37.73657114428109
35.50284578755127
33.46546806236985
31.60429957734774
29.90185480353757
28.34291891041708
26.91423419077213
25.60424333123361
24.40288058737159
23.3014043163348
22.2922664958677
21.36901699949086
20.52624274885802
19.75954474924594
19.06555990617754
18.44204019554475
17.8880105025132
17.40404048433606
16.99268916008797
16.6592210003328
16.41276328774473
16.26820472176889
16.2493831872829
16.39460299446931
16.76654559766558
17.47087162992076
18.69292268557553
20.77320535457273
24.01206887881789
28.24852389605791
33.62841432338725
40.55485895517901
48.57775698694683
56.21331451025358
61.45693677004557
60.09335783937911
50.35365222962874
37.470182327355
26.23663877670317
17.92157695668071
12.30028696559218
8.666008669252394
6.300800511432882
4.711581913557442
3.618008720576801
2.875663065744434
2.399161645039083
2.112939349008709
1.945970252366471
1.844330660337812
1.775730139081663
1.724300223989009
1.683307870701919
1.650082178420951
1.624621415693111
1.619304835644629
1.807322255626488
2.985524118273557
5.633198272133929
9.122632283181659
13.42625890549703
20.19098271619195
41.24186077756604
1163211.330493505
215046.122799214
75148.00742175004
35939.1403791893
20452.37415556617
12950.57299373279
8803.868151237071
6293.825367329912
4671.892002225401
3571.567493265109
2796.595047125185
2234.082180033019
1815.149307127534
1495.706535089813
1246.521345427274
1047.839771519226
886.2793409750838
752.8347795699235
641.4514236562761
547.9673966944559
469.367672526802
403.3086829378824
347.8509722910947
301.3286247866623
262.2941623191114
229.4964795756317
201.8679334730531
178.510338366378
158.6775238690819
141.7555696735732
127.2426480859316
114.7300508180639
103.8853217705244
94.43784878659649
86.16689002665728
78.89180716021447
72.46419479340511
66.76158505445738
61.68243228453687
57.14212357484906
53.0698043070395
49.40584810174386
46.09983520761317
43.10893197880098