/*--------------------------------*- C++ -*----------------------------------*\
| =========                 |                                                 |
| \\      /  F ield         | OpenFOAM: The Open Source CFD Toolbox           |
|  \\    /   O peration     | Version:  v1812                                 |
|   \\  /    A nd           | Web:      www.OpenFOAM.com                      |
|    \\/     M anipulation  |                                                 |
\*---------------------------------------------------------------------------*/
FoamFile
{
    version     2.0;
    format      ascii;
    class       volScalarField;
    location    "1792";
    object      p;
}
// * * * * * * * * * * * * * * * * * * * * * * * * * * * * * * * * * * * * * //

dimensions      [0 2 -2 0 0 0 0];


internalField   nonuniform List<scalar> 
11031
(
-0.1674752668476236
-0.1674960027344615
-0.1675183810508876
-0.1675424756190019
-0.1675683509064576
-0.1675960585360176
-0.1676256332996839
-0.1676570886357099
-0.1676904115584567
-0.1677255570044129
-0.1677624413860489
-0.1678009346195856
-0.1678408485958432
-0.1678819170083471
-0.1679237540841255
-0.1679657620688128
-0.1680069232611029
-0.1680453756409512
-0.1680775814936498
-0.1680958171570794
-0.1680805182588287
-0.1680054284220387
-0.1678549928438936
-0.1676046895907948
-0.1672124701491666
-0.1667081853372724
-0.1660857197643892
-0.1652119758337633
-0.1636749311838814
-0.1620816273051613
-0.1615353195713532
-0.161691198749262
-0.1619902214852553
-0.1622051269490938
-0.1623402032193027
-0.1623161360504488
-0.1620402073457682
-0.16146876052102
-0.1605805262171717
-0.1593692986303069
-0.1578069174612669
-0.1558655196349835
-0.1535094075177062
-0.1507720855085652
-0.1476486167537605
-0.1442425243121499
-0.1405173058599274
-0.1366779586558308
-0.1325973256768708
-0.1286587940563708
-0.1245299617957347
-0.1209020769553194
-0.1170068577687558
-0.1141172785863573
-0.1105665393147935
-0.109217162992175
-0.1065048867648418
-0.1118033381534491
-0.1675550852991049
-0.1675735570700592
-0.1675935897210948
-0.1676152771983858
-0.1676387100929148
-0.1676639730732523
-0.1676911418585365
-0.1677202796844604
-0.1677514332356362
-0.1677846280311754
-0.1678198632400115
-0.1678571058508446
-0.1678962839309417
-0.1679372782039182
-0.1679799099441215
-0.1680239203341396
-0.1680689296888711
-0.168114348615487
-0.1681591798510478
-0.1682016124344733
-0.1682382608500663
-0.1682621122676426
-0.1682547197343379
-0.1681882347984281
-0.1680470161877089
-0.1678080565328168
-0.1674232515060671
-0.1669462475933229
-0.1663543633034625
-0.1655131676938533
-0.1640669840018661
-0.1623778848501882
-0.1616610594802753
-0.1616940117264689
-0.1619126279372473
-0.1620645997379422
-0.1621414444954857
-0.1620658513136694
-0.1617403843234824
-0.1611219446624628
-0.1601914818085151
-0.1589457854908825
-0.1573586140915912
-0.1554018085692975
-0.1530375912687094
-0.1502986618043688
-0.1471788097567315
-0.1437819441166403
-0.1400694295740062
-0.1362473978881545
-0.132185374014971
-0.128269727527033
-0.1241625564063968
-0.120561353356299
-0.1166874189145918
-0.1138258993110267
-0.1102873512684203
-0.1089613652818382
-0.1062279447575379
-0.111386839793207
-0.1676376999122912
-0.1676539403124829
-0.1676716078346085
-0.1676908040544643
-0.167711631799339
-0.1677341934720226
-0.1677585889802973
-0.1677849132094045
-0.1678132529828069
-0.1678436834723979
-0.1678762640245281
-0.1679110333801389
-0.1679480042480412
-0.1679871571382986
-0.1680284331688166
-0.1680717250613168
-0.168116864358745
-0.1681636002002047
-0.1682115587461112
-0.1682601573865376
-0.1683084165834508
-0.1683545746773817
-0.1683953688648272
-0.1684242121434407
-0.1684237561771496
-0.1683654719883756
-0.1682327119676696
-0.1680041005729276
-0.1676308173052977
-0.1671737070529234
-0.1666095776651365
-0.1658009949337378
-0.1644427652622327
-0.1626884341999819
-0.1618058927670067
-0.1617165977398101
-0.1618511807679143
-0.1619379275467419
-0.1619549108012138
-0.1618267007812593
-0.1614507372672725
-0.1607840675796479
-0.1598098755131681
-0.1585279346338587
-0.1569141012816403
-0.1549401697193547
-0.152566374635803
-0.1498246254376759
-0.1467074066540838
-0.1433190366874034
-0.1396187139042898
-0.1358136992009279
-0.1317701592072677
-0.1278773924948862
-0.1237920172677165
-0.1202176006774664
-0.1163652165078756
-0.1135317536899282
-0.1100058112236083
-0.1087030007746132
-0.1059486746772381
-0.110976285699056
-0.1675916396978716
-0.1675914686000644
-0.1675912909543258
-0.1675911232771304
-0.1675909603511984
-0.167590800272159
-0.1675906447050144
-0.1675904965115588
-0.1675903593487995
-0.1675902380297779
-0.1675901388947358
-0.1675900701142939
-0.1675900419580473
-0.1675900669981952
-0.1675901601981169
-0.167590338789384
-0.1675906218731626
-0.1675910297249268
-0.1675915828896438
-0.1675923012615477
-0.1675932033379631
-0.1675943058130683
-0.1675956235855721
-0.1675971701618649
-0.1675989583528354
-0.1676010011226827
-0.16760331242489
-0.1676059079061043
-0.1676088054330057
-0.1676120254688147
-0.1676155913470416
-0.16761952948483
-0.1676238695702665
-0.1676286447456253
-0.167633891797336
-0.1676396513609648
-0.1676459681391036
-0.1676528911305898
-0.1676604738657795
-0.1676687746389131
-0.1676778567301413
-0.1676877886024615
-0.1676986440590922
-0.1677105023446153
-0.1677234481656948
-0.1677375716103658
-0.1677529679283146
-0.1677697371263872
-0.1677879833504683
-0.1678078140093337
-0.1678293385910581
-0.1678526670990657
-0.1678779080520945
-0.1679051659944137
-0.1679345384548243
-0.1679661123090878
-0.167999959498484
-0.1680361320721329
-0.1680746564986506
-0.1681155271314733
-0.1681586985164011
-0.1682040757315255
-0.1682515008014336
-0.1683007306359783
-0.1683513960945071
-0.1684029180192744
-0.1684543269585161
-0.1685038941551125
-0.1685484334557846
-0.1685816220825508
-0.1685873866524777
-0.1685371970065803
-0.1684121112980013
-0.168192468256659
-0.1678332912752101
-0.1673871328559158
-0.1668524306278775
-0.1660832051103302
-0.1647995304237101
-0.1630087438732197
-0.1619663007990986
-0.1617564782180667
-0.1618047916581297
-0.1618242287853049
-0.1617797577553551
-0.1615978293998385
-0.1611705268599487
-0.1604545390319693
-0.1594352707819044
-0.1581154517828581
-0.1564731906006721
-0.1544804854006063
-0.1520956919315885
-0.1493499520479459
-0.1462344148120849
-0.1428538298362804
-0.1391651997858209
-0.1353769083376721
-0.1313517293115324
-0.1274818330222018
-0.1234183857277766
-0.1198708519818703
-0.1160402792636287
-0.113234864027217
-0.1097219444369349
-0.1084421350750698
-0.105667192707217
-0.1105700259718998
-0.1677041754534986
-0.1677040094983598
-0.1677038370008883
-0.1677036744236439
-0.1677035169203849
-0.167703362798144
-0.1677032138650284
-0.1677030731510391
-0.1677029445190932
-0.1677028330225372
-0.1677027452746078
-0.167702689740409
-0.1677026769923994
-0.1677027198932913
-0.1677028336524572
-0.1677030356791189
-0.1677033451552153
-0.1677037823249135
-0.1677043675927153
-0.1677051206088797
-0.1677060595312512
-0.1677072006386473
-0.167708558399723
-0.1677101459849509
-0.1677119760590732
-0.1677140616507764
-0.1677164169525676
-0.1677190579811289
-0.1677220030773882
-0.1677252732689625
-0.1677288925360057
-0.167732888024427
-0.167737290238708
-0.1677421332364254
-0.1677474548337348
-0.1677532968288753
-0.1677597052421319
-0.167766730570368
-0.1677744280499312
-0.1677828579207597
-0.1677920856810882
-0.1678021823217449
-0.1678132245230322
-0.167825294797168
-0.1678384815518885
-0.1678528790502454
-0.1678685872316011
-0.1678857113567742
-0.167904361433787
-0.1679246513780945
-0.1679466978509287
-0.1679706187195365
-0.1679965310780408
-0.1680245487709715
-0.1680547793571725
-0.1680873204618
-0.1681222554594872
-0.1681596484315918
-0.1681995383178418
-0.1682419321029921
-0.1682867966839427
-0.1683340485601885
-0.1683835393660595
-0.1684350327481946
-0.1684881625300522
-0.1685423493427737
-0.1685966255513607
-0.1686492765216954
-0.1686971516417072
-0.1687341132117809
-0.1687455000846849
-0.1687032449363152
-0.1685849768357159
-0.1683722534325153
-0.1680249676459235
-0.167579810632512
-0.1670851971729184
-0.1663682565795307
-0.1651383822992677
-0.163337354054623
-0.1621420320585061
-0.1618130498263468
-0.1617734448342918
-0.1617233232259086
-0.1616156554759272
-0.1613787785536712
-0.1608992735704397
-0.1601328914997806
-0.159067248268974
-0.1577080016811444
-0.1560356304166771
-0.1540225705028261
-0.151625412329171
-0.148874555530714
-0.1457597835529856
-0.1423862974522799
-0.1387088793736206
-0.1349370276712274
-0.1309300951081075
-0.1270830614224887
-0.1230416775297946
-0.119521120011709
-0.1157126190541937
-0.1129352369453093
-0.1094357623930385
-0.1081788175880437
-0.1053835853910954
-0.1101676927914179
-0.167816602029866
-0.1678164429350715
-0.1678162773197175
-0.1678161215049824
-0.1678159710960746
-0.167815824642193
-0.1678156840950489
-0.1678155526439892
-0.1678154343494109
-0.1678153344916998
-0.1678152599292837
-0.1678152193859348
-0.167815223682845
-0.167815285899809
-0.1678154214005442
-0.1678156476531612
-0.1678159837798469
-0.1678164498356753
-0.167817065925757
-0.1678178513302493
-0.1678188238275319
-0.1678199993675362
-0.1678213921788739
-0.1678230152885077
-0.1678248813102569
-0.1678270033213546
-0.1678293956665436
-0.1678320746099113
-0.1678350588215261
-0.1678383697292226
-0.1678420317825378
-0.1678460726716485
-0.1678505235313651
-0.1678554191493179
-0.1678607981908999
-0.167866703443173
-0.1678731820774756
-0.1678802859279932
-0.1678880717798104
-0.1678966016581675
-0.1679059431087602
-0.1679161694573388
-0.1679273600307521
-0.1679396003240143
-0.1679529820891219
-0.1679676033205239
-0.1679835681071563
-0.1680009863148753
-0.1680199730587768
-0.1680406479191641
-0.1680631338466348
-0.1680875556966029
-0.1681140383279821
-0.1681427041938492
-0.1681736703519081
-0.1682070448210408
-0.1682429222158897
-0.1682813785801815
-0.1683224653248842
-0.1683662020862282
-0.1684125681156074
-0.1684614912979813
-0.1685128327742102
-0.1685663626720378
-0.1686217171179672
-0.1686783147712278
-0.1687351852409412
-0.1687906176871759
-0.1688414802860284
-0.1688817986707092
-0.1688982827300507
-0.168863522073126
-0.1687512414996145
-0.1685439255691316
-0.1682073143590016
-0.1677557692013973
-0.1673031320128176
-0.1666487025076255
-0.1654594830864258
-0.163671917719406
-0.1623330070582757
-0.1618857178380751
-0.1617569255992051
-0.1616348587864399
-0.1614621878813918
-0.1611690723603539
-0.160636502247425
-0.1598186669391711
-0.1587053912141028
-0.1573052473046424
-0.1556011730346966
-0.1535662523670786
-0.1511554223585428
-0.1483983690550655
-0.1452834824218125
-0.1419164341861113
-0.1382497652000942
-0.1344940790585748
-0.1305052849647129
-0.1266811058946045
-0.122661921535238
-0.1191684293718089
-0.1153822594895758
-0.112632892579478
-0.1091472847842567
-0.1079130980692033
-0.105097931823318
-0.1097699066631569
-0.1679290831254528
-0.1679289326998623
-0.1679287758706312
-0.1679286286168222
-0.1679284870584694
-0.1679283500284847
-0.1679282196273597
-0.167928099205011
-0.1679279930166049
-0.1679279065633048
-0.1679278469441509
-0.1679278231279717
-0.1679278461730093
-0.1679279293620934
-0.1679280882063978
-0.1679283402382114
-0.1679287045400079
-0.1679292010189236
-0.1679298495295066
-0.1679306690228431
-0.1679316769004735
-0.1679328887256394
-0.1679343183759664
-0.1679359785944201
-0.1679378817984197
-0.1679400409518369
-0.1679424703567819
-0.1679451862868382
-0.1679482074575785
-0.1679515553702894
-0.1679552545756818
-0.1679593328977477
-0.167963821649112
-0.1679687558567288
-0.167974174506946
-0.1679801208143377
-0.1679866425144624
-0.1679937921766858
-0.1680016275311428
-0.1680102118021004
-0.1680196140380507
-0.1680299094243054
-0.1680411795623042
-0.1680535126952989
-0.1680670038560628
-0.1680817549069495
-0.168097874438169
-0.1681154774828273
-0.168134685004914
-0.1681556231083151
-0.1681784219144313
-0.1682032140490143
-0.1682301326840585
-0.1682593090715401
-0.1682908695130406
-0.1683249316964702
-0.1683616003319119
-0.1684009619865403
-0.1684430789835983
-0.1684879821206198
-0.1685356617467859
-0.1685860562219656
-0.1686390356748766
-0.1686943765680791
-0.1687517174553688
-0.1688104750981649
-0.1688696755816085
-0.1689276099696
-0.1689811666726014
-0.1690245293767433
-0.1690455761614009
-0.1690176470280037
-0.1689108046379615
-0.1687083297669971
-0.1683837474896712
-0.1679253625108491
-0.1675024293906927
-0.1669094031290709
-0.1657620800148577
-0.1640065152023136
-0.1625362695477477
-0.1619718466863943
-0.1617537150959093
-0.1615577172987469
-0.161318430820613
-0.1609678720434416
-0.1603814911574201
-0.1595112813676878
-0.1583492464225209
-0.156906863862435
-0.1551696064702245
-0.1531114044474104
-0.15068565784705
-0.1479213756265
-0.1448055305533353
-0.1414442833118437
-0.1377879158178339
-0.134048126924165
-0.1300773648560611
-0.126276027631467
-0.1222791735389166
-0.1188128271473598
-0.1150492443848628
-0.112327874132416
-0.1088565549811865
-0.1076450441427388
-0.1048103226578013
-0.109377115748937
-0.1680383372838462
-0.168038194334528
-0.1680380450110147
-0.1680379051483542
-0.1680377713496883
-0.1680376426983538
-0.1680375214332162
-0.1680374110556732
-0.1680373160066157
-0.1680372419974779
-0.1680371963485418
-0.1680371882564173
-0.168037228993922
-0.1680373320343783
-0.1680375130357173
-0.1680377896192562
-0.168038180884554
-0.1680387066738271
-0.1680393866940266
-0.1680402396733175
-0.1680412827355485
-0.1680425311486889
-0.1680439985193207
-0.1680456973875091
-0.1680476400575146
-0.1680498394790941
-0.168052310032357
-0.1680550681513679
-0.1680581327882935
-0.1680615257546974
-0.1680652719881636
-0.1680693997831622
-0.1680739410172463
-0.168078931386492
-0.1680844106627166
-0.1680904229722956
-0.1680970170979357
-0.1681042467969845
-0.1681121711320273
-0.1681208548044751
-0.1681303684805854
-0.1681407890977883
-0.1681522001363356
-0.1681646918376422
-0.1681783613502516
-0.1681933127770262
-0.1682096570968365
-0.1682275119269726
-0.1682470010882323
-0.1682682539262522
-0.1682914043360035
-0.1683165894254784
-0.1683439477459106
-0.1683736170047823
-0.1684057311724178
-0.1684404168855856
-0.168477789050152
-0.1685179455317125
-0.1685609607914179
-0.1686068782211582
-0.1686557007072513
-0.1687073784189384
-0.1687617916995307
-0.1688187245617362
-0.1688778193451487
-0.1689384924926884
-0.1689997681910095
-0.1690599417084196
-0.169115927789423
-0.1691620511573907
-0.1691870659734843
-0.169165214483923
-0.1690636657497076
-0.1688657673424551
-0.1685528940743512
-0.1680941755639876
-0.167685897166662
-0.1671446125999692
-0.1660492866975303
-0.1643356824333673
-0.1627489266333292
-0.1620685891068555
-0.1617619871533783
-0.1614906111974803
-0.1611833883130078
-0.1607743169038743
-0.1601334998364128
-0.1592101330753385
-0.1579983455015802
-0.1565125150087499
-0.1547407132984911
-0.1526579005903761
-0.1502160581358676
-0.1474435631107739
-0.1443259528704783
-0.1409698947426926
-0.1373233967552364
-0.1335992426905454
-0.1296464071473888
-0.1258678936237671
-0.1218934938839853
-0.118454363862207
-0.1147136191883395
-0.112020224067287
-0.1085636129872416
-0.1073747161560058
-0.1045208507783831
-0.1089891994837349
-0.1681485848830812
-0.1681484549453736
-0.1681483190157436
-0.1681481921523716
-0.1681480716047538
-0.1681479568049573
-0.1681478501260844
-0.1681477551917482
-0.1681476765911556
-0.1681476201979407
-0.1681475935014111
-0.1681476058601903
-0.168147668699316
-0.1681477956189992
-0.1681480023623253
-0.1681483065657089
-0.1681487272403834
-0.1681492840016537
-0.1681499961774861
-0.1681508819732843
-0.1681519578833459
-0.1681532384932742
-0.1681547367377963
-0.1681564645410392
-0.1681584336739901
-0.1681606566386994
-0.1681631474434898
-0.1681659222146982
-0.1681689996493702
-0.1681724013531609
-0.1681761521081053
-0.1681802801117303
-0.1681848172142481
-0.1681897991718267
-0.1681952659240511
-0.1682012618975902
-0.1682078363372578
-0.168215043658291
-0.168222943815855
-0.1682316026817161
-0.1682410924184927
-0.1682514918366124
-0.1682628867188991
-0.168275370089638
-0.1682890424067042
-0.1683040116426785
-0.1683203932254898
-0.1683383097940294
-0.1683578907281489
-0.168379271402461
-0.1684025921143804
-0.1684279966321147
-0.1684556303102302
-0.1684856377151081
-0.1685181596995328
-0.168553329853006
-0.1685912702317834
-0.1686320862306157
-0.1686758603963075
-0.1687226448497634
-0.1687724517423461
-0.1688252406562465
-0.1688809007684375
-0.1689392233132336
-0.1689998551347704
-0.1690622140819937
-0.1691253251011744
-0.1691874923116303
-0.1692456661902056
-0.1692942948105748
-0.1693227063003974
-0.1693061704023206
-0.169210011845587
-0.1690166346723918
-0.1687144191297393
-0.1682640453167969
-0.167853676328124
-0.1673559296220118
-0.1663290070335605
-0.1646562980704795
-0.1629696755164189
-0.1621740059598586
-0.1617802108643324
-0.1614323982943197
-0.1610562045213035
-0.1605876916021753
-0.1598918875076142
-0.1589146647045581
-0.1576522229766834
-0.1561218459597281
-0.1543142521289063
-0.1522055919567721
-0.1497465419656484
-0.146964900293586
-0.1438447566966899
-0.1404933025153279
-0.136856259534973
-0.1331474856643297
-0.1292124738840961
-0.1254567622104223
-0.1215049357725914
-0.1180930842089266
-0.1143754235815024
-0.1117099763815244
-0.108268485032925
-0.1071021573891427
-0.1042296043897771
-0.1086059995215246
-0.1682446390458072
-0.1682445225530458
-0.1682444006075192
-0.1682442873461353
-0.1682441807643661
-0.1682440807977147
-0.168243990125638
-0.1682439127033861
-0.1682438535415886
-0.1682438190371524
-0.1682438173139362
-0.1682438585022971
-0.1682439549440251
-0.1682441213014531
-0.1682443744889435
-0.1682447333570857
-0.1682452180745356
-0.1682458492678852
-0.1682466470700886
-0.1682476302803056
-0.1682488158139495
-0.1682502185803554
-0.1682518518168648
-0.1682537277914518
-0.1682558586916629
-0.1682582575145785
-0.1682609388315695
-0.1682639193770251
-0.1682672184797826
-0.1682708583769612
-0.1682748644604235
-0.1682792654938294
-0.1682840938287135
-0.1682893856346958
-0.1682951811526938
-0.1683015249749059
-0.1683084663491004
-0.1683160595058167
-0.1683243640026207
-0.1683334450772824
-0.1683433740036625
-0.1683542284361662
-0.1683660927324598
-0.1683790582355796
-0.1683932234996783
-0.1684086944332849
-0.1684255843367348
-0.1684440137994791
-0.1684641104211637
-0.1684860083088491
-0.1685098472973222
-0.168535771821217
-0.1685639293629214
-0.1685944683777519
-0.1686275355913809
-0.1686632725508422
-0.1687018113013471
-0.1687432690388338
-0.1687877415458789
-0.1688352951070553
-0.1688859563453638
-0.1689396988965349
-0.1689964247295125
-0.1690559356667266
-0.1691178860705649
-0.1691816981299069
-0.1692464006314466
-0.1693103107581405
-0.1693704225958571
-0.1694213006808971
-0.1694526591474731
-0.1694408581150164
-0.1693501831416331
-0.1691613383270681
-0.1688690057838128
-0.1684304848567704
-0.1679991554196805
-0.1675489665531546
-0.1666111274244562
-0.1649668184843667
-0.1631985636530049
-0.1622874547563917
-0.1618074309571358
-0.1613821155424652
-0.1609361446917571
-0.1604074454538823
-0.1596561554172789
-0.1586243993781485
-0.157310435953467
-0.1557344906391158
-0.1538899616645283
-0.1517543133558562
-0.1492770155773459
-0.1464853450098973
-0.1433619392682364
-0.1400145317829563
-0.136386548042785
-0.1326929088350217
-0.1287756218017041
-0.1250426875248505
-0.1211135488358822
-0.1177290303656183
-0.114034694846784
-0.1113971610689836
-0.1079711913119678
-0.1068274055620323
-0.103936674231933
-0.1082272048759344
-0.1683448431351209
-0.1683447336124991
-0.1683446190102788
-0.1683445129830058
-0.1683444139448842
-0.1683443221502671
-0.1683442405058547
-0.1683441732204723
-0.16834412561825
-0.1683441044746415
-0.1683441183634164
-0.1683441779336371
-0.1683442961105949
-0.1683444881790488
-0.1683447716755755
-0.1683451660100417
-0.1683456917883575
-0.1683463699080582
-0.1683472205956666
-0.1683482625875548
-0.1683495126332861
-0.1683509854372318
-0.1683526940581928
-0.1683546506561426
-0.1683568674011532
-0.1683593573578897
-0.1683621352272721
-0.1683652179107816
-0.1683686249128568
-0.168372378631705
-0.1683765045855311
-0.1683810316137706
-0.168385992079629
-0.1683914220904471
-0.1683973617440959
-0.1684038554052243
-0.1684109520119389
-0.1684187054109974
-0.168427174716865
-0.1684364246917141
-0.1684465261375028
-0.1684575562892993
-0.1684695992005072
-0.1684827460998299
-0.1684970957000513
-0.1685127544316861
-0.1685298365669194
-0.168548464194246
-0.16856876699477
-0.1685908817673128
-0.1686149516415941
-0.1686411249136627
-0.1686695534394748
-0.1687003905111056
-0.1687337881397659
-0.1687698936508414
-0.1688088454729353
-0.1688507679529932
-0.16889576494966
-0.1689439118206891
-0.1689952451509588
-0.1690497490493386
-0.1691073357770637
-0.1691678162959925
-0.1692308519203086
-0.1692958691745243
-0.1693619006806661
-0.1694272760362846
-0.1694890309515686
-0.1695418340051092
-0.1695757005485951
-0.1695682224165829
-0.1694831310445261
-0.1692983952816481
-0.1690135068925489
-0.1685859429015125
-0.168119224744349
-0.167720129267136
-0.1668869280100816
-0.1652570055930301
-0.163426865762495
-0.1624022919639517
-0.1618398361688464
-0.1613377434344228
-0.1608217235937855
-0.1602322224658416
-0.1594251350300977
-0.1583384753668219
-0.1569724133901804
-0.1553500863440613
-0.1534676045681727
-0.1513039028750088
-0.1488073744757797
-0.1460048425354548
-0.1428774872789841
-0.139533598509024
-0.1359142982745202
-0.1322355581262283
-0.1283359019854249
-0.1246257186952658
-0.1207193795694389
-0.1173622419294641
-0.1136914728043402
-0.111081827905663
-0.1076718073462139
-0.1065505554948815
-0.1036421664968252
-0.1078514785642274
-0.1684422614200806
-0.1684421576136336
-0.1684420487785437
-0.1684419485086356
-0.1684418556340831
-0.168441770649106
-0.1684416966270618
-0.1684416379681193
-0.1684416002304923
-0.1684415904583504
-0.1684416175250597
-0.1684416923962558
-0.1684418283164992
-0.1684420408667649
-0.1684423478264269
-0.1684427687610006
-0.1684433243185138
-0.16844403531327
-0.1684449217750738
-0.1684460021607468
-0.1684472929039006
-0.1684488084158347
-0.1684505615427556
-0.1684525643561406
-0.1684548290800235
-0.168457368974565
-0.1684601990664509
-0.1684633366943321
-0.1684668018971819
-0.1684706176930546
-0.1684748102973572
-0.1684794093176804
-0.1684844479514101
-0.1684899631995474
-0.1684959961042885
-0.1685025920128009
-0.1685098008644643
-0.1685176775022346
-0.1685262819993726
-0.168535679999812
-0.1685459430610814
-0.1685571489951009
-0.1685693821938261
-0.1685827339283732
-0.1685973026078334
-0.1686131939788286
-0.1686305212459188
-0.1686494050844539
-0.1686699735151209
-0.1686923615956823
-0.168716710876966
-0.1687431685517455
-0.1687718862114933
-0.1688030181008831
-0.1688367187443628
-0.1688731397977843
-0.1689124259584551
-0.1689547097407772
-0.1690001048616902
-0.1690486978671646
-0.1691005373587628
-0.1691556196504592
-0.1692138686050539
-0.1692751052385662
-0.1693389983904954
-0.1694049790599512
-0.1694720828740317
-0.1695386485515276
-0.1696017438122115
-0.1696561169205912
-0.1696920457632265
-0.1696885847586572
-0.1696093684263322
-0.1694283614276061
-0.1691480922718108
-0.1687301104396713
-0.1682321382774565
-0.1678734786512276
-0.1671352856566178
-0.1655273386372276
-0.1636559748343172
-0.1625195434377227
-0.1618778056215699
-0.1612994821235364
-0.1607128745622985
-0.1600617445617814
-0.1591984239569676
-0.1580564419129456
-0.1566376995337318
-0.1549682189211389
-0.1530468320065976
-0.1508540780250373
-0.148337399193945
-0.1455232295591155
-0.1423912847794338
-0.1390504223061913
-0.1354394582209882
-0.1317754004129632
-0.1278932970847609
-0.1242058459144879
-0.1203224263552112
-0.1169927179168858
-0.1133457557214484
-0.1107639644543802
-0.1073703204470861
-0.1062716101469794
-0.103346137320937
-0.1074780498602293
-0.1685422854541891
-0.1685421896663351
-0.1685420891036226
-0.1685419968974038
-0.1685419123176118
-0.1685418361277264
-0.1685417715487763
-0.1685417231329911
-0.1685416966233395
-0.1685416992756225
-0.1685417401895714
-0.1685418305645031
-0.1685419838644627
-0.1685422158489598
-0.1685425443972481
-0.1685429890557655
-0.1685435702982716
-0.168544308599489
-0.1685452234980752
-0.1685463328469003
-0.1685476524176193
-0.1685491959649593
-0.1685509757362189
-0.168553003294748
-0.1685552904551932
-0.1685578501568228
-0.1685606971703598
-0.1685638486207532
-0.1685673243544334
-0.1685711472023585
-0.1685753431878406
-0.1685799417169472
-0.1685849757745255
-0.1685904821403895
-0.1685965016330813
-0.1686030793824708
-0.1686102651325403
-0.1686181135702903
-0.1686266846771581
-0.1686360440994585
-0.168646263528678
-0.1686574210856548
-0.1686696016940828
-0.1686828974335643
-0.1686974078494395
-0.1687132402000302
-0.1687305096123307
-0.1687493391104596
-0.1687698594780807
-0.1687922089057905
-0.1688165323698097
-0.1688429806814432
-0.1688717091385182
-0.1689028757031812
-0.168936638612533
-0.1689731533082165
-0.1690125685290569
-0.169055021353821
-0.1691006308798818
-0.16914949007401
-0.169201655046333
-0.169257130472647
-0.1693158488497891
-0.169377639174518
-0.1694421764840117
-0.169508895336614
-0.169576833177865
-0.1696443348684778
-0.1697084921529036
-0.1697641165719901
-0.1698017358519524
-0.1698019567902478
-0.1697287644705504
-0.1695515032429416
-0.1692744018750486
-0.1688654278728292
-0.1683518240459679
-0.1680150840572512
-0.1673421415671208
-0.1657803378614549
-0.1638859648702431
-0.1626398846309049
-0.1619213996371495
-0.1612672847668581
-0.1606093731856505
-0.1598956520480666
-0.1589755809027969
-0.1577778358513881
-0.156305841974167
-0.1545884837380348
-0.1526273087564602
-0.1504045737663219
-0.1478668896191324
-0.1450403623935088
-0.1419032352239859
-0.1385649418628545
-0.1349619940532496
-0.13131241961314
-0.127447804897827
-0.123783072951269
-0.1199226986831509
-0.1166204675591949
-0.1129975531602966
-0.1104435766905035
-0.107066740542903
-0.1059905932263977
-0.1030486466762332
-0.1071075498149529
-0.1686340136521468
-0.1686339241018653
-0.1686338298785708
-0.1686337439241023
-0.1686336659639555
-0.1686335970622098
-0.1686335406625488
-0.1686335015723716
-0.1686334858509723
-0.1686335011296507
-0.168633556941947
-0.1686336649724463
-0.1686338392065803
-0.1686340959317922
-0.1686344535209248
-0.1686349319302713
-0.1686355519212016
-0.1686363341138104
-0.1686372980564013
-0.1686384615059398
-0.1686398400813544
-0.1686414473847667
-0.1686432955658286
-0.1686453961774387
-0.1686477611225106
-0.1686504035159914
-0.1686533383713737
-0.1686565830975417
-0.1686601578407026
-0.1686640857264216
-0.1686683930482415
-0.1686731094401382
-0.1686782680561404
-0.1686839057697122
-0.1686900633996942
-0.1686967859643001
-0.168704122962867
-0.1687121286825526
-0.1687208625275404
-0.1687303893650293
-0.1687407798839214
-0.1687521109574399
-0.1687644660035549
-0.1687779353312078
-0.1687926164602799
-0.1688086143993679
-0.1688260418608952
-0.1688450193888808
-0.1688656753662118
-0.1688881458597835
-0.1689125742488926
-0.168939110567522
-0.1689679104690982
-0.1689991337052897
-0.1690329419809975
-0.169069496026249
-0.1691089516950787
-0.1691514548612273
-0.169197134809417
-0.1692460956821845
-0.1692984052655657
-0.1693540798444272
-0.1694130627959949
-0.1694751924859787
-0.1695401509541465
-0.1696073768199147
-0.169675909635874
-0.1697441000771407
-0.1698090625024256
-0.169865671812995
-0.1699047065288024
-0.1699082184459925
-0.1698409228564388
-0.1696677562699215
-0.1693939112155027
-0.1689933039967646
-0.1684749199911216
-0.1681456920675926
-0.1675153947496692
-0.1660195672641683
-0.1641138916708701
-0.1627617448468721
-0.1619690560553517
-0.1612401314771515
-0.1605104034660687
-0.1597332027383661
-0.1587559133458346
-0.1575020602648639
-0.1559763505732568
-0.1542104943065171
-0.1522087435446096
-0.1499551792632029
-0.1473957015327202
-0.1445561515183887
-0.1414132938617152
-0.1380771453005802
-0.1344819178038565
-0.1308466415179703
-0.1269994597134296
-0.1233574353808827
-0.1195202316950049
-0.1162455216501718
-0.1126468947523758
-0.1101206953175618
-0.1067611048699045
-0.105707550932021
-0.1027497652060669
-0.1067402501365921
-0.1687346906844941
-0.1687346049736213
-0.1687345145774591
-0.1687344324357281
-0.1687343585215791
-0.1687342940097449
-0.1687342423905358
-0.1687342085175938
-0.1687341984893482
-0.168734219952251
-0.1687342824051217
-0.1687343974162588
-0.1687345787387307
-0.168734842277415
-0.1687352058454292
-0.1687356886550939
-0.1687363105518551
-0.1687370911008319
-0.1687380487032851
-0.1687391999249764
-0.1687405592030882
-0.1687421390179686
-0.168743950496238
-0.1687460042869813
-0.1687483115038539
-0.1687508845677988
-0.1687537378660018
-0.1687568882219884
-0.168760355218957
-0.168764161428133
-0.1687683325936537
-0.1687728978065001
-0.1687778896920781
-0.1687833446216578
-0.1687893029550964
-0.1687958093155165
-0.1688029128956698
-0.1688106677941284
-0.1688191333771837
-0.1688283746625472
-0.1688384627186484
-0.1688494750720267
-0.1688614961131817
-0.1688746174880746
-0.1688889384604715
-0.1689045662221601
-0.1689216161287622
-0.1689402118266937
-0.1689604852340429
-0.1689825763265875
-0.1690066326761952
-0.1690328086741877
-0.1690612643660747
-0.1690921638107143
-0.1691256728596365
-0.1691619562271724
-0.1692011736835401
-0.1692434751373201
-0.1692889942715024
-0.1693378402229029
-0.1693900864942516
-0.1694457557348142
-0.169504797979941
-0.1695670579004303
-0.1696322226628997
-0.1696997342613114
-0.1697686348419322
-0.1698372825185157
-0.1699028182589978
-0.1699601922979402
-0.1700004382416025
-0.1700068095202305
-0.1699450430166692
-0.1697764227789064
-0.1695065591415622
-0.1691134842206592
-0.1685949456460299
-0.1682606699487326
-0.1676647568938567
-0.1662474538290993
-0.1643342529159055
-0.1628810377690471
-0.1620174416231585
-0.1612162543098657
-0.1604147790900709
-0.1595733159718914
-0.1585384284333533
-0.157228329385691
-0.1556486646757976
-0.1538338641684064
-0.1517908650528337
-0.1495056995749389
-0.1469237009310144
-0.1440705159356854
-0.1409214245567952
-0.1375870292626178