/*--------------------------------*- C++ -*----------------------------------*\
| =========                 |                                                 |
| \\      /  F ield         | OpenFOAM: The Open Source CFD Toolbox           |
|  \\    /   O peration     | Version:  v1812                                 |
|   \\  /    A nd           | Web:      www.OpenFOAM.com                      |
|    \\/     M anipulation  |                                                 |
\*---------------------------------------------------------------------------*/
FoamFile
{
    version     2.0;
    format      ascii;
    class       surfaceScalarField;
    location    "1792";
    object      phi;
}
// * * * * * * * * * * * * * * * * * * * * * * * * * * * * * * * * * * * * * //

dimensions      [0 3 -1 0 0 0 0];
oriented        oriented;


internalField   nonuniform List<scalar> 
21847
(
1.551920042782528e-06
-7.591135082985149e-06
1.68974944701613e-06
-8.207764754887378e-06
1.838859014085788e-06
-8.861785996150708e-06
2.000062152253242e-06
-9.552814303423922e-06
2.174206511160587e-06
-1.027966734901256e-05
2.362168303854874e-06
-1.1040134322426e-05
2.564844020283412e-06
-1.183068896734572e-05
2.783138621297578e-06
-1.264613160817128e-05
3.017949110279473e-06
-1.347914109498025e-05
3.270142499133337e-06
-1.431971053578691e-05
3.540526581318082e-06
-1.515442983769447e-05
3.829812845410328e-06
-1.596556084605023e-05
4.13857157991286e-06
-1.672982043053149e-05
4.46718328250862e-06
-1.741673292768509e-05
4.81579992086426e-06
-1.798630975513074e-05
5.184353403781601e-06
-1.838560828284466e-05
5.572707885276798e-06
-1.85432918559693e-05
5.98120218854082e-06
-1.836036736143073e-05
6.412233510555034e-06
-1.769307921563129e-05
6.874759429258384e-06
-1.63183908540429e-05
7.394877891010069e-06
-1.385824202057548e-05
8.029320045554088e-06
-9.645933587488954e-06
8.882397368152396e-06
-2.558473729930434e-06
1.014977401989278e-05
9.248632936682634e-06
1.218892442249225e-05
2.883790939575393e-05
1.555505192690653e-05
6.114779176009895e-05
2.114602631019571e-05
0.0001134350236545273
3.041321587050008e-05
0.0001963745836874294
4.394277643184237e-05
0.0003221321516741861
5.848137694605434e-05
0.0004863827672546019
6.881940702112699e-05
0.0006556958127296245
7.326402836479864e-05
0.0007968281211138381
7.426010893822767e-05
0.0009089611698160178
7.462188648974817e-05
0.001014473961936564
7.52212038386685e-05
0.001130873511346614
7.56998094528405e-05
0.001260907827336681
7.561957946343696e-05
0.001399804233503879
7.480942879323864e-05
0.001542333345936086
7.337306544059774e-05
0.001686340255838812
7.158578690276016e-05
0.001834393124768071
6.967715334079799e-05
0.001991881549452122
6.770217157259509e-05
0.002163027693257318
6.560934514901178e-05
0.002349389907807464
6.334679155317812e-05
0.002551418191946904
6.088951082158309e-05
0.002769920178022564
5.821806873662965e-05
0.003006263966445272
5.531186601648818e-05
0.003261981058616656
5.214368093151559e-05
0.003538888687669956
4.868958730699861e-05
0.003838738398753474
4.491494636904654e-05
0.004163976789264967
4.079504142082227e-05
0.004516232583401975
3.628989991988114e-05
0.004899115079854236
3.138150830541258e-05
0.005313518237702712
2.600983746263324e-05
0.005751020447220966
2.023808412791339e-05
0.006181589018604232
1.396961344128251e-05
0.006620073826733065
6.9517146996879e-06
0.007118468891504304
0.007807747115550445
1.303749043586513e-06
-6.576808095433345e-06
1.420900220521863e-06
-7.128820251336181e-06
1.547755063818966e-06
-7.717989926177185e-06
1.685038189269246e-06
-8.345047880262425e-06
1.833512803744678e-06
-9.010260610568645e-06
1.993978711367604e-06
-9.71328021099973e-06
2.167268868299185e-06
-1.045295750590389e-05
2.354243962776697e-06
-1.122710941686705e-05
2.555784195824469e-06
-1.203222920036043e-05
2.772777676613423e-06
-1.286312508893023e-05
3.006104232812193e-06
-1.371246765115291e-05
3.256613417951545e-06
-1.457021972090402e-05
3.525095513400061e-06
-1.542291193312565e-05
3.812244185302611e-06
-1.625270951794041e-05
4.118610960469712e-06
-1.703618720569095e-05
4.444554492872073e-06
-1.77426764600835e-05
4.790196013755338e-06
-1.833195127600974e-05
5.15541326281674e-06
-1.875082553190242e-05
5.539956289322842e-06
-1.892783488247909e-05
5.943899224151165e-06
-1.876431029627601e-05
6.368985411589976e-06
-1.811816540312094e-05
6.822406689920593e-06
-1.677181213245636e-05
7.32642579576166e-06
-1.436226112652475e-05
7.931986524093071e-06
-1.025149431592728e-05
8.73334281444649e-06
-3.359830020354457e-06
9.905266905360263e-06
8.076708845785087e-06
1.177230423454356e-05
2.697087206669972e-05
1.484123535833131e-05
5.80788606365219e-05
1.990938307027306e-05
0.0001083668759428231
2.833743500646757e-05
0.0001879465317514585
4.101213405329344e-05
0.0003094574526275632
5.531508389962394e-05
0.0004720798174084538
6.606584458685426e-05
0.0006449450520425548
7.099350876158979e-05
0.0007919004569392706
7.21662947664076e-05
0.0009077883838113915
7.248764839175442e-05
0.001014152608311274
7.303006697049794e-05
0.00113033109276782
7.350108065273319e-05
0.001260436813654388
7.344848234048555e-05
0.001399856831816187
7.268292577444261e-05
0.001543098902502279
7.129479777030183e-05
0.001687728383843171
6.955202297694312e-05
0.001836135899561639
6.768675718864786e-05
0.001993746815240687
6.576043321449079e-05
0.002164954017231934
6.372443759798954e-05
0.002351425903425073
6.152659018803141e-05
0.002553616039356621
5.914148357127914e-05
0.002772305284642138
5.654981306273871e-05
0.003008855636952379
5.373130146306082e-05
0.00326479957022149
5.06589117756912e-05
0.003541961077354043
4.73090156403213e-05
0.003842088294896035
4.364727515857038e-05
0.004167638529742216
3.964940921855928e-05
0.004520230449349528
3.527598139482702e-05
0.004903488507673417
3.051004014036639e-05
0.005318284178962015
2.529520467456958e-05
0.005756235282683203
1.969379802755002e-05
0.006187190425252705
1.360614932774584e-05
0.006626161475431993
6.780234490977771e-06
0.007125294806340329
0.007814527350042181
1.093827733143963e-06
-5.67138433544689e-06
1.193218238336573e-06
-6.160269223887864e-06
1.300924712362115e-06
-6.684514569439209e-06
1.417585113814566e-06
-7.245480652777171e-06
1.543875603837557e-06
-7.844280416195309e-06
1.680510446961738e-06
-8.481682723386065e-06
1.82824105671841e-06
-9.157991220327906e-06
1.987854021958732e-06
-9.872893176244264e-06
2.160167583673944e-06
-1.062527106762473e-05
2.346026188493253e-06
-1.141296802169297e-05
2.546292403596934e-06
-1.223249541547094e-05
2.761835357352522e-06
-1.307866804269412e-05
2.993514669325344e-06
-1.394414696313479e-05
3.242158655000726e-06
-1.481886370659041e-05
3.508535288064887e-06
-1.568928856620258e-05
3.793314835364737e-06
-1.6537489065255e-05
4.097023626157312e-06
-1.733989599649995e-05
4.419991282784455e-06
-1.80656441167275e-05
4.762301184444465e-06
-1.867426117768425e-05
5.123771575322248e-06
-1.911229592279438e-05
5.504040084669299e-06
-1.930810339184311e-05
5.902937024706134e-06
-1.916320723634378e-05
6.32162483821591e-06
-1.853685321668508e-05
6.765790220584477e-06
-1.721597751490563e-05
7.25430742230097e-06
-1.485077832834044e-05
7.832795603101901e-06
-1.082998249682563e-05
8.586930506335878e-06
-4.113964923651849e-06
9.674131131250833e-06
6.989508220880023e-06
1.139080102523774e-05
2.525420217280661e-05
1.419901171242366e-05
5.527064994949604e-05
1.880088536676637e-05
0.0001037650022886728
2.645679627956534e-05
0.0001802906208388455
3.826995972478785e-05
0.0002976442891825048
5.223244551015252e-05
0.0004581173316232316
6.330509331693569e-05
0.0006338724042358912
6.870075319962347e-05
0.0007865047970566973
7.00737957390291e-05
0.0009064153412721007
7.03683674386681e-05
0.001013858036611665
7.085245938942351e-05
0.00112984700081703
7.131130397504175e-05
0.001259977969068744
7.128312382629361e-05
0.001399885011964993
7.056026060517356e-05
0.001543821765723528
6.921975666743231e-05
0.001689068887781091
6.75217790822135e-05
0.001837833877147046
6.570025827298293e-05
0.001995568336050146
6.38226653450164e-05
0.002166831610160297
6.184338230993922e-05
0.002353405186460844
5.971008033747618e-05
0.002555749341328956
5.739697263042231e-05
0.002774618392350976
5.488487556167539e-05
0.003011367734020245
5.215383490176806e-05
0.00326753061088466
4.917700873537648e-05
0.003544937903518355
4.593106720985002e-05
0.003845334236426131
4.238198169634424e-05
0.004171187615252856
3.85059047688314e-05
0.004524106526281832
3.42639442843139e-05
0.004907730468155048
2.964019375297214e-05
0.005322907929496403
2.458191094364271e-05
0.005761293565490246
1.915052850385913e-05
0.006192621807693409
1.324310240711668e-05
0.006632068901528162
6.608162539722257e-06
0.007131929746207253
0.007821135512582371
7.512468668716605e-11
-2.639511016568677e-09
3.031729828835245e-10
-8.011635698429706e-09
6.912253367674284e-10
-1.363255157971345e-08
1.250990880942481e-09
-1.966626412913288e-08
1.999182152038979e-09
-2.628940932926871e-08
2.957989698995287e-09
-3.369624927179728e-08
4.155681155548487e-09
-4.210401203440379e-08
5.62728620074639e-09
-5.175844479831181e-08
7.415318181054397e-09
-6.293928511778595e-08
9.570394169655075e-09
-7.596496120799422e-08
1.215151113865509e-08
-9.11952212061983e-08
1.522558517460345e-08
-1.090295502319959e-07
1.886575968552322e-08
-1.298983411906002e-07
2.314795509719538e-08
-1.542437241413589e-07
2.814573726154056e-08
-1.824891300984213e-07
3.392443349249081e-08
-2.150022526759327e-07
4.053676039611505e-08
-2.520639548133643e-07
4.802230709635331e-08
-2.938590221356238e-07
5.64114083793196e-08
-3.404971317333636e-07
6.573184646765861e-08
-3.9205678610237e-07
7.601551047739009e-08
-4.486342265742852e-07
8.730335339695035e-08
-5.103819130388791e-07
9.964821531338175e-08
-5.775312432277149e-07
1.131161057215444e-07
-6.504016587439665e-07
1.27786509457902e-07
-7.294010526496215e-07
1.437522470065307e-07
-8.150216098015283e-07
1.611190891403471e-07
-9.078340228216102e-07
1.800055531709891e-07
-1.008482075495942e-06
2.005427874122836e-07
-1.117678384871563e-06
2.228747236646896e-07
-1.236201726931193e-06
2.471584623064485e-07
-1.364896006214777e-06
2.735648282514043e-07
-1.504670453696871e-06
3.022791341842197e-07
-1.656500828804156e-06
3.335020844886844e-07
-1.821431246016568e-06
3.674507690907071e-07
-2.000576180802068e-06
4.043598401845094e-07
-2.195122542445432e-06
4.444827152648172e-07
-2.406331262814613e-06
4.880928935183705e-07
-2.635538295912e-06
5.354853586986789e-07
-2.884154626072286e-06
5.869779832451924e-07
-3.153664862005652e-06
6.429131011837167e-07
-3.445624195050788e-06
7.036590098889261e-07
-3.761652929074467e-06
7.6961154201931e-07
-4.103428229330076e-06
8.411956920417935e-07
-4.472672270887706e-06
9.188671286974626e-07
-4.87113575599718e-06
1.003113776035102e-06
-5.300575968195657e-06
1.094457198670811e-06
-5.762727758125717e-06
1.193453921495817e-06
-6.259265946757587e-06
1.300696504558132e-06
-6.791757152547702e-06
1.416814322050458e-06
-7.361598470316951e-06
1.54247390401576e-06
-7.969939998209417e-06
1.678378711314383e-06
-8.617587530733868e-06
1.825268051154739e-06
-9.304880560217815e-06
1.983914990789245e-06
-1.003154011592812e-05
2.155122716634842e-06
-1.079647879351872e-05
2.339718984860079e-06
-1.159756428996518e-05
2.538547972888207e-06
-1.243132440354482e-05
2.752458642529967e-06
-1.329257871237999e-05
2.982288684371477e-06
-1.417397700501878e-05
3.228842590128054e-06
-1.506541761238806e-05
3.492862615274898e-06
-1.595330859138893e-05
3.774991009159504e-06
-1.681961745917751e-05
4.075722981818272e-06
-1.764062796919429e-05
4.395352035870315e-06
-1.838527317081088e-05
4.733915458702021e-06
-1.901282460054332e-05
5.091163948370795e-06
-1.946954441248455e-05
5.466618465892396e-06
-1.968355790938797e-05
5.859875231065899e-06
-1.955646400154685e-05
6.271571256682294e-06
-1.894854924234927e-05
6.706111571223259e-06
-1.76505178295137e-05
7.17939076160093e-06
-1.532405751880013e-05
7.732077213117905e-06
-1.138266894842189e-05
8.442366642258097e-06
-4.824254352839597e-06
9.453167112658016e-06
5.978707750494212e-06
1.10361423974288e-05
2.367122688811832e-05
1.361359433901634e-05
5.269319800804015e-05
1.779909720852964e-05
9.957949941931516e-05
2.474775819481009e-05
0.0001733419598527122
3.570762846047895e-05
0.0002866844189169594
4.923872630762227e-05
0.0004445862337761857
6.053970288777308e-05
0.0006225714276558089
6.63786263085332e-05
0.0007806658736359897
6.797079403510999e-05
0.0009048231735455593
6.825284759982801e-05
0.001013575983046924
6.867831109609976e-05
0.001129421537320697
6.912064162012528e-05
0.001259535638544672
6.911365792073639e-05
0.001399891995664399
6.843164931017135e-05
0.001544503774334168
6.713827389184655e-05
0.001690362263199527
6.548557744943527e-05
0.001839486573589575
6.370845200448865e-05
0.001997345461495229
6.187997630794839e-05
0.002168660085857111
5.995761102802483e-05
0.002355327551741171
5.788903125913034e-05
0.0025578179210978
5.564810627594698e-05
0.00277685931733524
5.321576818062008e-05
0.003013800072115085
5.057238887090226e-05
0.003270173990196365
4.769133140242438e-05
0.003547818960985625
4.454957048644097e-05
0.003848475997344913
4.11133960909722e-05
0.004174623789646647
3.73593958203025e-05
0.004527860526555434
3.324923529066218e-05
0.004911840628682997
2.876804399842951e-05
0.00532738912079048
2.386672119036299e-05
0.00576619488829695
1.860578541895926e-05
0.006197882743465372
1.287879019670311e-05
0.006637795896750073
6.434679390335957e-06
0.007138373857013334
0.007827570191972985
7.806559527193019e-11
-2.717576611861531e-09
3.147148800496791e-10
-8.248284983389724e-09
7.170576340557373e-10
-1.403489433463866e-08
1.297027411492967e-09
-2.024623390642419e-08
2.07170801843907e-09
-2.706408993579685e-08
3.063806534679917e-09
-3.468834778996831e-08
4.30224594195965e-09
-4.334245144104807e-08
5.822847541622919e-09
-5.327904639913407e-08
7.669025494291971e-09
-6.478546307151134e-08
9.892353362433067e-09
-7.818828907753201e-08
1.255276024079427e-08
-9.385562808601605e-08
1.571790100873422e-08
-1.121946910005939e-07
1.946123016847316e-08
-1.336416703518356e-07
2.385828842352492e-08
-1.586407824006115e-07
2.898130949397154e-08
-1.876121511725367e-07
3.489338816963241e-08
-2.209143313544969e-07
4.164445428425089e-08
-2.588150209314872e-07
4.927130899165305e-08
-3.014858768459613e-07
5.780204529190043e-08
-3.490278680396861e-07
6.726293971600555e-08
-4.015176805325565e-07
7.768504549294855e-08
-4.59056332358175e-07
8.91089638815957e-08
-5.218058314348864e-07
1.015874611388966e-07
-5.900097404929671e-07
1.151865286027307e-07
-6.640007262161019e-07
1.299854751511498e-07
-7.441999992063062e-07
1.460766967126919e-07
-8.311128313722616e-07
1.635653722473698e-07
-9.25322698366528e-07
1.825692427370461e-07
-1.027485945996984e-06
2.032185529746757e-07
-1.138327695121196e-06
2.256562573046636e-07
-1.258639431274109e-06
2.500383654792838e-07
-1.389278114403126e-06
2.765345209387074e-07
-1.531166609171118e-06
3.053287188844279e-07
-1.685295026766822e-06
3.366202008935719e-07
-1.852722728044145e-06
3.706244385348998e-07
-2.034580418463463e-06
4.075742298288029e-07
-2.232072333761286e-06
4.477208942850185e-07
-2.446477927295928e-06
4.913355456378028e-07
-2.679152947292841e-06
5.387104187733887e-07
-2.931529499239022e-06
5.90160312913314e-07
-3.205114756180561e-06
6.460239757687872e-07
-3.501487857945441e-06
7.066656762853617e-07
-3.822294629634471e-06
7.724766937573349e-07
-4.169239246850821e-06
8.438768415298001e-07
-4.544072418714454e-06
9.213160146927878e-07
-4.948574929219784e-06
1.005275648855382e-06
-5.384535602423279e-06
1.09627007866428e-06
-5.853722188004748e-06
1.194847832781046e-06
-6.357843700949527e-06
1.301592614132779e-06
-6.8985019339788e-06
1.417124040350132e-06
-7.477129896616552e-06
1.542097928164335e-06
-8.094913886108561e-06
1.677205945894634e-06
-8.752695548550048e-06
1.823174522422711e-06
-9.450849136831886e-06
1.980762545431677e-06
-1.018912813902217e-05
2.150757688091599e-06
-1.096647393626143e-05
2.33397063585506e-06
-1.178077723780867e-05
2.531226807536745e-06
-1.262858057530295e-05
2.743354525313454e-06
-1.350470643022982e-05
2.971168713463764e-06
-1.440179119323772e-05
3.215448812751389e-06
-1.530969771174067e-05
3.476909349125422e-06
-1.621476912782334e-05
3.756161700952094e-06
-1.709886981106036e-05
4.053666106021645e-06
-1.793813237431374e-05
4.369674847942714e-06
-1.870128191277448e-05
4.704173180459521e-06
-1.934732293309255e-05
5.056838449839429e-06
-1.982220968188997e-05
5.427072360138971e-06
-2.005379181970796e-05
5.814247475755475e-06
-1.994363911718925e-05
6.218527938275122e-06
-1.935282970490522e-05
6.643225454707142e-06
-1.807521534599683e-05
7.101597982269643e-06
-1.578243004642157e-05
7.629665952308236e-06
-1.191073691851132e-05
8.298874777765571e-06
-5.493463178314187e-06
9.23914658327794e-06
5.038435945024866e-06
1.069848862430944e-05
2.221188484719075e-05
1.306690009419089e-05
5.032478653830388e-05
1.688461369667256e-05
9.576178581699258e-05
2.319588004067907e-05
0.0001670306935088505
3.332715617413074e-05
0.0002765531427836204
4.635463741853354e-05
0.0004315587525318633
5.779341300489398e-05
0.0006111326520694913
6.404419613131788e-05
0.0007744150905095814
6.586999018996786e-05
0.0009029973794868944
6.615421104067126e-05
0.00101329176219616
6.652206575265926e-05
0.001129053682608627
6.694401938934773e-05
0.00125911368490792
6.695503023852114e-05
0.001399880984815214
6.631187491480481e-05
0.001545146929657919
6.506481681906819e-05
0.001691609321295321
6.34575006837237e-05
0.001841093889724983
6.172504261910079e-05
0.001999077919559915
5.9945687741161e-05
0.002170439440735223
5.808002571099061e-05
0.002357193213771563
5.607587685102479e-05
0.002559822069957763
5.390680511091267e-05
0.002779028389075992
5.155385337888132e-05
0.003016153023846883
4.899771961709316e-05
0.003272730123959342
4.621198106949498e-05
0.003550604699532586
4.31739184898455e-05
0.003851514059926252
3.985014858734005e-05
0.004177947559548254
3.62176919788138e-05
0.004531492983165727
3.22387797478673e-05
0.004915819540913038
2.789955889896094e-05
0.005331728341640485
2.315455532839372e-05
0.005770939891866761
1.806335063110846e-05
0.006202973948162986
1.251581885526855e-05
0.006643343428525724
6.261177799345605e-06
0.00714462849806909
0.007833831369772499
8.085690004120524e-11
-2.798433512060462e-09
3.258416824337649e-10
-8.493269767325911e-09
7.421040579189584e-10
-1.445115671163609e-08
1.341722143499627e-09
-2.084585199288493e-08
2.142059027278073e-09
-2.78644268219812e-08
3.166228105038058e-09
-3.571251686887794e-08
4.443679522156025e-09
-4.461990285969426e-08
6.010859809434806e-09
-5.484622668891329e-08
7.911882591626287e-09
-6.668648585563428e-08
1.0199041127201e-08
-8.047544761596794e-08
1.293287925955668e-08
-9.658946622253353e-08
1.618141889809247e-08
-1.15443230643667e-07
2.001797444300905e-08
-1.374782259014588e-07
2.451718729407336e-08
-1.631399952571202e-07
2.974946531779014e-08
-1.928444292020884e-07
3.57752328219705e-08
-2.269400988703901e-07
4.264137792432862e-08
-2.656811660416867e-07
5.038189594693811e-08
-3.092263948796774e-07
5.902279733523692e-08
-3.576687694400061e-07
6.858901051974454e-08
-4.110838937309582e-07
7.911075726600313e-08
-4.695780791199991e-07
9.062799441377736e-08
-5.333230685976372e-07
1.031928054329837e-07
-6.025745515282003e-07
1.168704496672503e-07
-6.776783704690984e-07
1.317395176173157e-07
-7.590690671749117e-07
1.478917514628963e-07
-8.472650652377488e-07
1.654317138450979e-07
-9.428626607697673e-07
1.84476560348986e-07
-1.046530792523611e-06
2.051559918296598e-07
-1.159007126625991e-06
2.276123694331183e-07
-1.281095808903018e-06
2.520010508759861e-07
-1.413666795874044e-06
2.784909441567227e-07
-1.557656502481729e-06
3.07265217913916e-07
-1.71406930055597e-06
3.385220848357106e-07
-1.883979595000572e-06
3.724758280290684e-07
-2.068534161694815e-06
4.093578242640371e-07
-2.268954330036677e-06
4.494176991333033e-07
-2.486537802209475e-06
4.929245636367599e-07
-2.722659811843918e-06
5.401683083633902e-07
-2.978773244017382e-06
5.914609562884331e-07
-3.256407404161368e-06
6.471380856959626e-07
-3.557164987412798e-06
7.075602618920185e-07
-3.882716805894911e-06
7.731145259961688e-07
-4.234793511023889e-06
8.442158670331713e-07
-4.615173759824867e-06
9.213087096267582e-07
-5.025667771891422e-06
1.004868307159516e-06
-5.468095200038608e-06
1.095402120503676e-06
-5.944256001435952e-06
1.193450952246343e-06
-6.455892532782691e-06
1.29958994788962e-06
-7.004640929716517e-06
1.414429232694537e-06
-7.591969181518933e-06
1.538614142423613e-06
-8.219098795937298e-06
1.672824772813447e-06
-8.886906179040469e-06
1.817774762365579e-06
-9.595799126485542e-06
1.974208906413091e-06
-1.034556228317057e-05
2.142899299300487e-06
-1.113516432924768e-05
2.3246394331462e-06
-1.196251737175058e-05
2.520235691801236e-06
-1.282417683405055e-05
2.730495346697439e-06
-1.371496608521451e-05
2.956210031123782e-06
-1.462750587774741e-05
3.198133321711977e-06
-1.555162100240782e-05
3.456950963342469e-06
-1.647358676952639e-05
3.733242083556353e-06
-1.737516093134102e-05
4.0274301481499e-06
-1.823232043896628e-05
4.339724186465024e-06
-1.901357595113786e-05
4.67005551060415e-06
-1.967765425726923e-05
5.01802749480668e-06
-2.017018166611761e-05
5.382926791636924e-06
-2.041869111655705e-05
5.763920506327873e-06
-2.032463283189661e-05
6.160757782952129e-06
-1.974966698155386e-05
6.575822048946945e-06
-1.849027961202438e-05
7.020049209838999e-06
-1.622665720735027e-05
7.525113868216513e-06
-1.241580157691527e-05
8.156309724028786e-06
-6.124659034119507e-06
9.031933335570394e-06
4.162812333546138e-06
1.037749157095067e-05
2.086632661192754e-05
1.25564267723955e-05
4.814585133701183e-05
1.605233230170914e-05
9.226588028783809e-05
2.179539179159949e-05
0.0001612876340190997
3.113628660316107e-05
0.000267212247972161
4.360941354321879e-05
0.0004190856255918705
5.510367359531293e-05
0.0005996383920174184
6.173176750011699e-05
0.0007677869966047636
6.380216874394102e-05
0.0009009269782430205
6.410353696109098e-05
0.001012990393978924
6.441620965627695e-05
0.001128741009913341
6.481461824295209e-05
0.001258715276321169
6.484052571387713e-05
0.001399855077344262
6.423395392926317e-05
0.001545753501442545
6.303180127300091e-05
0.001692811473951612
6.146916511296996e-05
0.001842656525885042
5.978078349810902e-05
0.002000766301174789
5.804965056288064e-05
0.002172170573670553
5.623950313686317e-05
0.002359003361197692
5.429843005397349e-05
0.002561763143040676
5.219972345482267e-05
0.002781127095675518
4.992452879775731e-05
0.003018428218503868
4.745386567773654e-05
0.00327520078708008
4.47615289508646e-05
0.003553297036259169
4.182510215151705e-05
0.00385445048672663
3.861152804510177e-05
0.004181161133654254
3.509825012139259e-05
0.00453500626109051
3.124806313619699e-05
0.004919669727897816
2.704808715276159e-05
0.005335928317624574
2.245641872683792e-05
0.005775531560292307
1.753168744156231e-05
0.006207898679448455
1.215999564611555e-05
0.006648715120321081
6.090703298996449e-06
0.007150697790416111
0.007839922073071597
8.300115970100313e-11
-2.881434671872733e-09
3.342046532214952e-10
-8.74447326138421e-09
7.607790449498548e-10
-1.487773110486446e-08
1.374989029631778e-09
-2.146006197860588e-08
2.194488196269229e-09
-2.868392598938875e-08
3.24278110589469e-09
-3.676080977988816e-08
4.549798263883858e-09
-4.592692001938394e-08
6.152548767207968e-09
-5.644897719250193e-08
8.095753325478294e-09
-6.862969041676593e-08
1.043228756674914e-08
-8.281198186058999e-08
1.322315512890612e-08
-9.938033378768428e-08
1.653651353599178e-08
-1.187565890543308e-07
2.044525550085354e-08
-1.413869678709005e-07
2.502274587584605e-08
-1.677174856383391e-07
3.033712438652862e-08
-1.981588077188988e-07
3.644566408385754e-08
-2.330486385767952e-07
4.339166009372619e-08
-2.726271620599826e-07
5.120574791927057e-08
-3.170404827160291e-07
5.991123705557955e-08
-3.663742585884777e-07
6.953115898461044e-08
-4.207038156722768e-07
8.00945071597031e-08
-4.801414273090292e-07
9.16404321390368e-08
-5.44868993591584e-07
1.042205632941133e-07
-6.151546826997849e-07
1.17899855162157e-07
-6.913576623542341e-07
1.327567727916341e-07
-7.739259848230823e-07
1.488829580751286e-07
-8.633912505411829e-07
1.663829317823298e-07
-9.603626344986522e-07
1.853738003032906e-07
-1.06552166106714e-06
2.059851305188157e-07
-1.179618456865708e-06
2.283590568469017e-07
-1.303469735257143e-06
2.52650627146861e-07
-1.437958366201808e-06
2.790282736164645e-07
-1.584034148981103e-06
3.076745039797375e-07
-1.742715530951837e-06
3.38786734245869e-07
-1.915091825302965e-06
3.725781969025344e-07
-2.102325624390073e-06
4.092789836304718e-07
-2.305655116807221e-06
4.491371781724216e-07
-2.526395996797877e-06
4.924200518155619e-07
-2.765942685537634e-06
5.394153231586215e-07
-3.025768515415337e-06
5.904324694611648e-07
-3.307424550523581e-06
6.458041262441865e-07
-3.61253664426081e-06
7.058874485212032e-07
-3.942800128242381e-06
7.710655835273894e-07
-4.299971646105961e-06
8.417490701709553e-07
-4.685857246549998e-06
9.183772562971603e-07
-5.102295958104821e-06
1.001419670201192e-06
-5.551137614034832e-06
1.091377277825468e-06
-6.034213609157504e-06
1.188783610931162e-06
-6.553298865989486e-06
1.294205671822303e-06
-7.11006299071237e-06
1.40824447752956e-06
-7.706007987333538e-06
1.531535223497127e-06
-8.342389542013547e-06
1.664746768479657e-06
-9.020117724132268e-06
1.808580305031509e-06
-9.73963266314593e-06
1.963766843499793e-06
-1.050074882174556e-05
2.131063230484258e-06
-1.130246071633643e-05
2.311246092476058e-06
-1.214270023384347e-05
2.505103080453829e-06
-1.301803382212508e-05
2.713420646197323e-06
-1.392328365105071e-05
2.93696719246609e-06
-1.485105242410382e-05
3.17647035375394e-06
-1.579112416377845e-05
3.43258677700994e-06
-1.672970319285917e-05
3.705862756396868e-06
-1.764843691079861e-05
3.996684268313801e-06
-1.852314195094523e-05
4.305216432611303e-06
-1.932210811548643e-05
4.631336554307167e-06
-2.000377437900216e-05
4.974575939812852e-06
-2.051342105164812e-05
5.334113120189651e-06
-2.077822829694715e-05
5.708929311609281e-06
-2.069944902332789e-05
6.09841003633745e-06
-2.013914770629514e-05
6.504139521788721e-06
-1.889600909749401e-05
6.935016917561856e-06
-1.665753460313981e-05
7.41871920448463e-06
-1.289950386383874e-05
8.014979555208629e-06
-6.720919384806791e-06
8.832155957551026e-06
3.345635931297319e-06
1.007570998272143e-05
1.962277258690424e-05
1.208468809621949e-05
4.613687322369382e-05
1.529771904238391e-05
8.905284934185463e-05
2.05326153840468e-05
0.000156052737677591
2.912611916580593e-05
0.000258618744190512
4.100955934932992e-05
0.0004072021854084133
5.248314046391718e-05
0.0005881648109028475
5.945040317253309e-05
0.0007608197338961235
6.177227909155427e-05
0.0008986051023239337
6.21053726743703e-05
0.00101265730039601
6.236629960645697e-05
0.001128480082981152
6.273853544136028e-05
0.001258343040486191
6.27763809140474e-05
0.001399817231871545
6.220412665100457e-05
0.001546325755705595
6.104536300624087e-05
0.001693970237596394
5.952653999800095e-05
0.001844175348893296
5.788148127915615e-05
0.002002411359893624
5.619751994455165e-05
0.002173854535005217
5.444153420649324e-05
0.002360759346935799
5.256199385065898e-05
0.00256364268339655
5.053195514225819e-05
0.00278315713438414
4.833265863984584e-05
0.003020627515006293
4.594543943975837e-05
0.003277588006280609
4.334431242853185e-05
0.003555898163270317
4.050715990380598e-05
0.003857287639252009
3.740124919357084e-05
0.004184267044364367
3.400443484986152e-05
0.004538403075434895
3.028007180514218e-05
0.004923394090942416
2.621620477492869e-05
0.00533999218465519
2.177443744358407e-05
0.005779973327623503
1.70124316433274e-05
0.006212660685248825
1.181245743198516e-05
0.006653915094532397
5.923875146115669e-06
0.007156586372701924
0.007845845948217777
8.565324501734633e-11
-2.967087917336177e-09
3.449596925714935e-10
-9.003779709409241e-09
7.850760552176904e-10
-1.531784746822627e-08
1.418226799775439e-09
-2.209321272395189e-08
2.262126353269328e-09
-2.952782554265409e-08
3.340424608120382e-09
-3.783910803574098e-08
4.683255440534441e-09
-4.726975085278686e-08
6.327846681410833e-09
-5.80935684348737e-08
8.31910222691561e-09
-7.062094596494706e-08
1.070996808118322e-08
-8.52028477173114e-08
1.356125002628815e-08
-1.02231615735423e-07
1.69404710521258e-08
-1.221358100826066e-07
2.091917357982057e-08
-1.453656704027627e-07
2.556844756118633e-08
-1.723667596239882e-07
3.095312585888487e-08
-2.03543486023208e-07
3.712637720080719e-08
-2.392218899261392e-07
4.412717914995612e-08
-2.796279640150041e-07
5.198233179874533e-08
-3.248956353740192e-07
6.071229358704448e-08
-3.751042203853181e-07
7.033834104469417e-08
-4.30329863140069e-07
8.088864623440839e-08
-4.906917325094524e-07
9.240227568129653e-08
-5.563826230501562e-07
1.049311925796991e-07
-6.276835996094152e-07
1.185410140992058e-07
-7.049674838870461e-07
1.33310927301498e-07
-7.886958980393204e-07
1.493333263705593e-07
-8.79413649624824e-07
1.667133469424887e-07
-9.777426550864171e-07
1.855685044840639e-07
-1.084376818624523e-06
2.060285691454194e-07
-1.20007852154527e-06
2.282356294559384e-07
-1.32567679558629e-06
2.523444103811806e-07
-1.462067147147404e-06
2.785227498859357e-07
-1.610212488508781e-06
3.069523121612814e-07
-1.771145093251134e-06
3.378293472341111e-07
-1.945968860402058e-06
3.713656749009582e-07
-2.135861952085392e-06
4.077896756584614e-07
-2.342079117595509e-06
4.473474447413205e-07
-2.565953765914402e-06
4.903039409020504e-07
-2.808899181735872e-06
5.369442731404511e-07
-3.072408847694017e-06
5.875750213891893e-07
-3.358055298816699e-06
6.425255651514192e-07
-3.667487188071654e-06
7.021495074014557e-07
-4.002424070544774e-06
7.66826065442105e-07
-4.364648204203592e-06
8.369615020018616e-07
-4.75599268317098e-06
9.129905171762561e-07
-5.178324973345483e-06
9.953775688604118e-07
-5.633524665790196e-06
1.084618081414507e-06
-6.123454121787462e-06
1.181239511624659e-06
-6.649920296279861e-06
1.285802138134125e-06
-7.21462561730647e-06
1.398899550697356e-06
-7.819105399984839e-06
1.521158549361562e-06