/*--------------------------------*- C++ -*----------------------------------*\
| =========                 |                                                 |
| \\      /  F ield         | OpenFOAM: The Open Source CFD Toolbox           |
|  \\    /   O peration     | Version:  v1812                                 |
|   \\  /    A nd           | Web:      www.OpenFOAM.com                      |
|    \\/     M anipulation  |                                                 |
\*---------------------------------------------------------------------------*/
FoamFile
{
    version     2.0;
    format      ascii;
    class       volVectorField;
    location    "1792";
    object      U;
}
// * * * * * * * * * * * * * * * * * * * * * * * * * * * * * * * * * * * * * //

dimensions      [0 1 -1 0 0 0 0];


internalField   nonuniform List<vector> 
11031
(
(-0.1234848911994549 0.0620482257790797 3.575930346144081e-15)
(-0.1225223448772988 0.06218425289254818 3.571162329850687e-15)
(-0.1213786996522446 0.06228624843001783 3.561762681918283e-15)
(-0.1200395174892467 0.06235138271834824 3.550540930739093e-15)
(-0.1184885688529947 0.06237624032093135 3.536748476224884e-15)
(-0.1167076335275638 0.06235672596772193 3.520091585945873e-15)
(-0.1146762593364259 0.06228794510640486 3.503076908090534e-15)
(-0.1123714657971975 0.06216405093067616 3.47919933225881e-15)
(-0.109767372814763 0.06197804625455851 3.455159361014874e-15)
(-0.1068347228136606 0.0617215230202682 3.427588153371309e-15)
(-0.1035402444557087 0.06138431332491751 3.398449610286419e-15)
(-0.09984576997994531 0.06095401135871203 3.366525554109194e-15)
(-0.09570695215253588 0.06041530142725968 3.338538388292353e-15)
(-0.09107130264107932 0.05974898556627582 3.29770811905394e-15)
(-0.08587503322296547 0.05893053101579317 3.255719654318881e-15)
(-0.08003769970709082 0.05792782784145053 3.217340780139741e-15)
(-0.07345264875828829 0.05669760603164536 3.174605465730783e-15)
(-0.0659691098996875 0.05517943525972809 3.129943999427695e-15)
(-0.05735685836697151 0.05328491351500388 3.08423143743781e-15)
(-0.04723161044925465 0.05087803254797384 3.032704738621984e-15)
(-0.03488871584569322 0.04774862714412203 2.998612482250049e-15)
(-0.01907123223625531 0.0435694120148627 2.936305707441062e-15)
(0.002206073545842168 0.03788680936538246 2.862955293108727e-15)
(0.03196947494477941 0.0301551057672101 2.759690404601701e-15)
(0.07491096580256368 0.01975868146648687 2.598748951093705e-15)
(0.1378540795103414 0.006073161185557524 2.355600870319976e-15)
(0.2296147709716403 -0.01105999825676346 1.989449837550034e-15)
(0.361911613385906 -0.03086196816784486 1.483419454274813e-15)
(0.5438470026046408 -0.04796054832257799 9.028397496108513e-16)
(0.7522186061742901 -0.0569656250435896 4.128036034069249e-16)
(0.9272893623739229 -0.06070744177449762 2.145273098149602e-16)
(1.03043147372205 -0.06477991738012145 2.803947854008353e-16)
(1.076724744566527 -0.06980942156211146 4.229710396040172e-16)
(1.102958905184318 -0.07341607052864642 4.405009088388125e-16)
(1.129506155666073 -0.07500890405596872 1.592777924497171e-16)
(1.157019382935588 -0.07551940339749273 -5.465448718166484e-16)
(1.17995346551216 -0.07539666595356556 -1.530961319550617e-15)
(1.194293780219987 -0.07462775617509926 -2.060731245008636e-15)
(1.19961809661819 -0.07326935648573234 -1.133860037763698e-15)
(1.198976131764967 -0.0713905273265234 1.738721991918593e-15)
(1.196368454583289 -0.06898042729723579 6.22786502844802e-15)
(1.19396427191188 -0.06610792312449269 1.130651594847288e-14)
(1.191890032974615 -0.06289603014375029 1.541748013568683e-14)
(1.189677009922772 -0.05945373331721126 1.732653935662939e-14)
(1.187129446501872 -0.05578022123461523 1.717846422429358e-14)
(1.184278607996085 -0.05194859191283648 1.582821722062718e-14)
(1.18119045239932 -0.04792569777799261 1.380418365306884e-14)
(1.177934278603502 -0.04386465764543228 1.128006150171013e-14)
(1.174551425014882 -0.03965068811314737 8.421943158989514e-15)
(1.171153341117241 -0.03555044099281705 5.500692093602554e-15)
(1.167668136800994 -0.03127942565408053 2.521150729791658e-15)
(1.164331461114049 -0.027307709552801 -2.111015942149884e-16)
(1.160869455443892 -0.02303935839698807 -1.704682759467432e-15)
(1.154969409522355 -0.01896598805066767 -1.597005975486551e-15)
(1.141357677771769 -0.01399101381024346 -7.82838028060951e-16)
(1.123700109640793 -0.009427054371511296 -2.495665807696347e-16)
(1.110714052912659 -0.005401199833082277 -6.378212006906258e-17)
(1.119412336986284 -0.003973369318363419 -3.700076261769441e-17)
(-0.1271251226823962 0.06114898326730316 3.606217490167959e-15)
(-0.1264773729560552 0.06134600562473975 3.604637452251822e-15)
(-0.1256715244543874 0.06151408761752573 3.598386966470065e-15)
(-0.1246961697810004 0.06165139636859104 3.591578682169281e-15)
(-0.1235384000813822 0.06175564912887415 3.581099687392833e-15)
(-0.1221836637026246 0.06182405535100215 3.571951113397045e-15)
(-0.12061559671261 0.06185324315600121 3.55755068782183e-15)
(-0.1188158192909637 0.06183916617000985 3.540956934295707e-15)
(-0.1167636892983316 0.06177698511893054 3.520596075832835e-15)
(-0.1144360000877697 0.06166091627018989 3.497759204134009e-15)
(-0.1118066028111889 0.06148403534433017 3.472256146795772e-15)
(-0.1088459221439596 0.06123802019019466 3.443978896367939e-15)
(-0.1055203148827916 0.06091280710202247 3.413891824041304e-15)
(-0.1017911864988037 0.0604961220500617 3.385241756871496e-15)
(-0.09761371835687925 0.05997282549989506 3.350586542636234e-15)
(-0.09293494206305085 0.05932397094697237 3.308785460390979e-15)
(-0.08769067429294354 0.05852540995852289 3.269534884311284e-15)
(-0.08180038264069611 0.05754565782774813 3.227340519478695e-15)
(-0.0751581417088614 0.05634251947787831 3.183333372947465e-15)
(-0.06761589462135058 0.05485752328493293 3.134421130242192e-15)
(-0.05895087861643719 0.0530060844509094 3.099746978243505e-15)
(-0.04879820661102355 0.05065921193735994 3.051457800388353e-15)
(-0.03649864018524607 0.04761900375181535 2.996185273187734e-15)
(-0.02086490381852812 0.04357854699726475 2.933137969921731e-15)
(-2.289568817235004e-07 0.0381021490682022 2.872196752366756e-15)
(0.02896500678550075 0.03067036675740884 2.78263070985971e-15)
(0.07046049778492472 0.02070046251493625 2.630191082216496e-15)
(0.1310527153614959 0.007481389396372932 2.400428429421717e-15)
(0.2191761999217166 -0.009073298420904518 2.054908278348862e-15)
(0.3457653592807792 -0.02862236778927443 1.560778236472383e-15)
(0.5214432963283788 -0.04639173983056512 9.835590320529069e-16)
(0.7290656299941017 -0.05642565377457674 4.65448344902133e-16)
(0.9112068047459317 -0.06048330359440842 2.279644040197112e-16)
(1.023171057171774 -0.06434945273231421 2.681717243006018e-16)
(1.074244876389129 -0.06932855844506858 4.123760779486088e-16)
(1.10132075584813 -0.07313547137617452 4.438381727628409e-16)
(1.127592566686407 -0.07490318455932325 1.862555228209209e-16)
(1.155192356926401 -0.07549704928901675 -4.912511592636185e-16)
(1.178586198179456 -0.07543725075233337 -1.47158053316095e-15)
(1.19346009019591 -0.07472992543774097 -2.039809380439405e-15)
(1.199169900254525 -0.07342035677370588 -1.192727230976986e-15)
(1.19867390550307 -0.07158101067140694 1.60902924107726e-15)
(1.196044271027028 -0.0692069886893856 6.067520403849405e-15)
(1.19358313384647 -0.06636456210098593 1.116503930703828e-14)
(1.191481608391925 -0.06317386435310299 1.533774272799128e-14)
(1.189265682534411 -0.05974550235325559 1.731919544093007e-14)
(1.186722662596918 -0.05607917245711457 1.720757249412294e-14)
(1.183879492711573 -0.05224869062016891 1.586722076663251e-14)
(1.180801929806342 -0.04821987560575465 1.38524769997566e-14)
(1.177560055344079 -0.04414766660635393 1.132383559365622e-14)
(1.174193486568838 -0.03991604488031521 8.465714756435921e-15)
(1.170814802771328 -0.03579480916992489 5.535899228978147e-15)
(1.167349494362764 -0.03149658179848 2.559124917066049e-15)
(1.164034247713959 -0.02749685186210034 -1.864420109862412e-16)
(1.160591964003479 -0.02319312985458535 -1.690402200005727e-15)
(1.154716968388813 -0.01909138080088084 -1.58361985514833e-15)
(1.141124817450171 -0.01406919339370658 -7.784570277694809e-16)
(1.123499269247219 -0.009472444917012435 -2.488252544869996e-16)
(1.110577792688508 -0.00538735477952336 -6.737664574065698e-17)
(1.119185725293699 -0.003900939259914149 -4.408426997365374e-17)
(-0.1302109403551816 0.06011631251831219 3.627567108663964e-15)
(-0.1298418803793272 0.06036478470297179 3.629507628242337e-15)
(-0.1293324547318773 0.06058760901062543 3.629334699396486e-15)
(-0.1286738620691591 0.06078375478365596 3.626446802979761e-15)
(-0.1278560056422277 0.06095182598997947 3.623233467849559e-15)
(-0.1268673948065553 0.06109002628740097 3.61417050258169e-15)
(-0.1256950251151638 0.06119611352601392 3.601011601340923e-15)
(-0.1243242339496777 0.06126734161977902 3.591471619120107e-15)
(-0.1227385273903791 0.06130038693986824 3.573640424543765e-15)
(-0.1209193722144924 0.06129125529489732 3.562040995019129e-15)
(-0.1188459442297735 0.06123516400238568 3.539160366121942e-15)
(-0.1164948200079813 0.06112639128378564 3.516237274937053e-15)
(-0.1138395924258922 0.06095808185365238 3.489933866841565e-15)
(-0.1108503794221413 0.06072199244641066 3.459027786348941e-15)
(-0.1074931766293429 0.06040815300544311 3.426379090451274e-15)
(-0.1037289716971049 0.06000440641536675 3.396018854115505e-15)
(-0.09951247900483781 0.05949576852446951 3.35979458365446e-15)
(-0.09479024415538699 0.05886351445221296 3.320667028403241e-15)
(-0.08949765958270864 0.0580838351851166 3.280123506776295e-15)
(-0.08355402339734193 0.05712579982492317 3.236412211083841e-15)
(-0.07685393917476699 0.05594816524285433 3.192156193089319e-15)
(-0.06925159445976067 0.05449417763055574 3.145552578949403e-15)
(-0.06053056221120651 0.05268253904114091 3.098650130470184e-15)
(-0.05034231128312856 0.05039057554986918 3.050871822432506e-15)
(-0.03806806680778559 0.04743136461327046 2.99601659236346e-15)
(-0.02258717230319526 0.04351678627214056 2.95500312541427e-15)
(-0.002083763349324811 0.03823030711762673 2.879545014535627e-15)
(0.0261747474379559 0.03107691491189315 2.779429101488008e-15)
(0.06637056877919591 0.02150598898411341 2.655428267450804e-15)
(0.1248475151470388 0.008776195654309217 2.433107997326163e-15)
(0.2097173604398972 -0.007247709449140022 2.102906647386118e-15)
(0.3311197597792331 -0.02648427289801726 1.635514011434242e-15)
(0.5005654347309393 -0.0447765224160284 1.062782232521027e-15)
(0.7064449941435911 -0.055826207768178 5.26947901099203e-16)
(0.8946519070586103 -0.06029110038694451 2.42427602684885e-16)
(1.015314659104452 -0.06398602543099985 2.588873751221332e-16)
(1.071564270360966 -0.068879662399742 4.00550551110428e-16)
(1.099750469012448 -0.07285911833670894 4.462535756692081e-16)
(1.125768639230425 -0.07480234321605683 2.169244394992084e-16)
(1.153405197463117 -0.07548275163219521 -4.448278308975312e-16)
(1.177227142117071 -0.0754841140202171 -1.413746289791287e-15)
(1.192622093428626 -0.0748362813931058 -2.026186582614727e-15)
(1.198716532571432 -0.07357419032689723 -1.246462504410586e-15)
(1.198371392409811 -0.07177258623131284 1.483751584452479e-15)
(1.195723108964132 -0.06943280813604331 5.911145372688094e-15)
(1.193204496507132 -0.066619242394254 1.102445707310628e-14)
(1.191073807563321 -0.0634490193932518 1.525768561801599e-14)
(1.188853621323565 -0.06003408316681395 1.731132479063214e-14)
(1.186314338718395 -0.05637453835553809 1.724266552086523e-14)
(1.18347826858979 -0.05254499329782226 1.591587015720845e-14)
(1.180410882661626 -0.04851014914350889 1.389781697154422e-14)
(1.177183058404099 -0.0444268228428186 1.137299498163554e-14)
(1.173832673437587 -0.04017761358667431 8.50109465652202e-15)
(1.170473385289209 -0.03603559609045523 5.570872183228274e-15)
(1.167028072952447 -0.0317103025509051 2.590036261208389e-15)
(1.163734375794615 -0.02768285486560223 -1.674316253536149e-16)
(1.160311921807005 -0.02334392600950677 -1.675959093716809e-15)
(1.154461401036598 -0.01921412611467622 -1.575621976432256e-15)
(1.140888545786072 -0.01414512217084759 -7.738815279186563e-16)
(1.123295225734184 -0.009516300393785451 -2.486850603140615e-16)
(1.110438361232737 -0.005374011840689728 -7.001123998258018e-17)
(1.118961240478408 -0.003832208905630544 -3.993993115386457e-17)
(-0.001575159521712665 0.0006556722918295948 4.433510347850571e-17)
(-0.004746810235628769 0.001975668567758955 1.338883108528641e-16)
(-0.007962419700304342 0.003314769134950194 2.238053186293183e-16)
(-0.0112455909553551 0.004682754460396107 3.153416374125165e-16)
(-0.01462055036729276 0.006089690159135146 4.085490027557074e-16)
(-0.01811221846290631 0.007546011548625632 5.058452620488512e-16)
(-0.02174622333229702 0.009062491333623454 6.061815759149196e-16)
(-0.02554873737481357 0.01065015383458908 7.124632648556896e-16)
(-0.02954600316538124 0.01232008010437437 8.218847295642711e-16)
(-0.03376333892710048 0.01408299908888969 9.378658000710416e-16)
(-0.03822330900026035 0.015948529162168 1.059346026943583e-15)
(-0.04294266283573447 0.01792390454953138 1.186628835161593e-15)
(-0.04792769603172466 0.02001204113496548 1.32198185307727e-15)
(-0.05316808167141325 0.02220895952860972 1.464897526199448e-15)
(-0.05863019845523373 0.02450099089728252 1.613748840302774e-15)
(-0.06425245819675306 0.02686280863268197 1.766339909262849e-15)
(-0.06994614969862535 0.02925775633480005 1.921722786710874e-15)
(-0.07560416378961481 0.03164146673717647 2.073827512135989e-15)
(-0.08111611390093759 0.03396816071019962 2.222281191322998e-15)
(-0.0863844195651564 0.03619736298785609 2.362918871436356e-15)
(-0.09133555169048095 0.03829861001204956 2.496476267836071e-15)
(-0.09592399473862089 0.04025312244306088 2.61989261892152e-15)
(-0.1001301768941885 0.0420529592550762 2.73110504456537e-15)
(-0.1039551375834736 0.04369880707096856 2.832546592545118e-15)
(-0.1074143163179671 0.04519739912238067 2.924073500247277e-15)
(-0.1105318873555184 0.04655915849631338 3.006418136930972e-15)
(-0.1133362631710638 0.04779632643680309 3.081658791220144e-15)
(-0.1158568760144234 0.048921622175535 3.146565149275571e-15)
(-0.118122084787043 0.04994737146249519 3.208380118268402e-15)
(-0.1201579610846929 0.05088500173846342 3.261481678968556e-15)
(-0.1219877021315866 0.0517447991117934 3.309099319645583e-15)
(-0.1236314542603133 0.05253583707701873 3.352297554822102e-15)
(-0.1251063817061975 0.05326600811077999 3.391482872589664e-15)
(-0.126426865286086 0.05394211000566 3.425990762417649e-15)
(-0.1276047560823033 0.05456995569227413 3.459099190019553e-15)
(-0.1286496390154168 0.05515448768983691 3.488477038447892e-15)
(-0.1295690812263809 0.05569988671205429 3.514659309888989e-15)
(-0.130368852972362 0.05620966926220532 3.538770050598982e-15)
(-0.1310531163200583 0.05668677223480564 3.558775529932002e-15)
(-0.1316245811521006 0.05713362430732147 3.579015137710992e-15)
(-0.1320846301800656 0.05755220479743886 3.595858658968102e-15)
(-0.1324334154989374 0.05794409103964027 3.610682731243265e-15)
(-0.1326699294570808 0.05831049540317792 3.623503610785341e-15)
(-0.1327920523957655 0.05865229298859935 3.633586409757481e-15)
(-0.1327965794277326 0.05897004087178369 3.641832644138565e-15)
(-0.1326792279929312 0.05926398954732529 3.647321495523475e-15)
(-0.1324346273913858 0.05953408700657636 3.651349453680576e-15)
(-0.1320562909611534 0.05977997563923735 3.653080576675449e-15)
(-0.1315365712143653 0.06000098192912307 3.652901189873544e-15)
(-0.1308665977035754 0.06019609865330532 3.649883935667762e-15)
(-0.130036196618735 0.06036395889648388 3.644403566052542e-15)
(-0.1290337907162009 0.06050280089529677 3.636450188573374e-15)
(-0.1278462773531939 0.06061042228660556 3.626022883802231e-15)
(-0.1264588814683288 0.06068412172911859 3.613009475902858e-15)
(-0.1248549790660725 0.06072062508655619 3.600158659867833e-15)
(-0.1230158849806785 0.06071599227785394 3.577060779505039e-15)
(-0.120920596031762 0.06066549938271888 3.555827659822384e-15)
(-0.1185454766100435 0.06056348838800565 3.534585434474136e-15)
(-0.1158638672266623 0.06040317370292637 3.507511546638312e-15)
(-0.1128455858737159 0.06017638964103559 3.478358025206323e-15)
(-0.1094562739524092 0.05987325540263651 3.446875261362456e-15)
(-0.10565650705628 0.05948172191613093 3.411733935281056e-15)
(-0.1014005346723026 0.05898694502271658 3.374086820009166e-15)
(-0.09663440968617555 0.05837039617602691 3.33407559037638e-15)
(-0.09129307375493699 0.05760856453747853 3.291984981415594e-15)
(-0.08529558468422085 0.05667100450512746 3.243910388536958e-15)
(-0.07853690454233492 0.05551730624101412 3.204793826454627e-15)
(-0.070873064421204 0.05409221418774632 3.1542664914061e-15)
(-0.06209301295987895 0.05231728244605431 3.105242882841355e-15)
(-0.05186211514230973 0.050075522906835 3.056740975160401e-15)
(-0.03959740608635331 0.04718974890207573 3.005608272487847e-15)
(-0.02424135023384534 0.04338940808983786 2.951500157125904e-15)
(-0.004053994035237671 0.03827823446902184 2.885149263912291e-15)
(0.02357565588027542 0.03138319309892009 2.801964195970022e-15)
(0.06260146438601751 0.02218295437977159 2.664492239902558e-15)
(0.1191670678431897 0.009952603792329602 2.457026264903175e-15)
(0.2011232107464962 -0.005587395126098474 2.155370244778004e-15)
(0.3178456822922905 -0.02446267856661464 1.697620948101884e-15)
(0.4812004824914153 -0.04313944855861775 1.134127157118825e-15)
(0.684505721606372 -0.05516633565071899 5.904772785372104e-16)
(0.8777589190827628 -0.06011947846268208 2.595757785658406e-16)
(1.006890016818187 -0.06368628846259666 2.498805020774895e-16)
(1.068656428332023 -0.06846723373001953 3.846848339960033e-16)
(1.098231399196809 -0.07259008019284376 4.444326918729192e-16)
(1.124034658583476 -0.07470675969181408 2.401610955179121e-16)
(1.151661699639947 -0.07547665804457851 -3.913334801665088e-16)
(1.175878762967401 -0.07553770203009783 -1.357054156812166e-15)
(1.191781075282418 -0.07494723833476651 -2.004572019134912e-15)
(1.198258273412329 -0.07373120743318848 -1.30450840365327e-15)
(1.198068229411116 -0.07196561444886143 1.370571452189024e-15)
(1.195404565355993 -0.06965821470527109 5.75493942905529e-15)
(1.192828170116761 -0.06687221475926323 1.088520329652677e-14)
(1.190666573603555 -0.06372167831128801 1.517628443639491e-14)
(1.188440807574107 -0.06031961241017527 1.730719653769796e-14)
(1.185904473688989 -0.05666641706417543 1.726860462454968e-14)
(1.18307495161643 -0.05283756406789321 1.59614579192881e-14)
(1.180017339652811 -0.04879655586336632 1.394438991141314e-14)
(1.176803322400993 -0.04470214367221471 1.141518786256646e-14)
(1.173469022581441 -0.04043539902865034 8.539255910788565e-15)
(1.170129124123535 -0.03627279741756272 5.606795095116302e-15)
(1.166703905099859 -0.03192058116486455 2.621324564590111e-15)
(1.163431871962004 -0.02786570964223372 -1.43321624022445e-16)
(1.160029351301188 -0.02349174271907867 -1.66022304400569e-15)
(1.154202728320965 -0.01933421927274732 -1.571696632448254e-15)
(1.140648883598711 -0.01421879830748652 -7.689160728399507e-16)
(1.123088037958385 -0.009558637435193803 -2.434633397769364e-16)
(1.110295904701727 -0.005361047070781648 -6.793149473120027e-17)
(1.118738622819134 -0.003766928546855976 -3.602564941871771e-17)
(-0.001622700777748385 0.0006570766523013525 4.550637733287682e-17)
(-0.004889991680841616 0.001979922578796754 1.374051632812013e-16)
(-0.008202512537743319 0.003321905079407853 2.303004084488485e-16)
(-0.01158456784942274 0.004692828026218627 3.242761692232812e-16)
(-0.01506109811397938 0.006102775288256071 4.203344812431008e-16)
(-0.01865774596223631 0.00756219436716707 5.197099843057909e-16)
(-0.02240085458904228 0.009081859464217362 6.230716557865463e-16)
(-0.02631727267677342 0.01067277518893517 7.299385814219476e-16)
(-0.03043381897515962 0.01234596211174735 8.424870304033792e-16)
(-0.03477617898088962 0.01411201494392253 9.602081199921639e-16)
(-0.039366897405311 0.01598029241396009 1.086104616322609e-15)
(-0.04422205371516667 0.01795757119920716 1.217461033449534e-15)
(-0.04934629130475538 0.02004602910169894 1.358351210584852e-15)
(-0.05472634234252369 0.02224061274327328 1.503542282747641e-15)
(-0.06032428369666683 0.0245262885608271 1.653240723262672e-15)
(-0.06607329825748705 0.02687630236858298 1.806363495335321e-15)
(-0.07187956329851147 0.02925292128207318 1.959521171851231e-15)
(-0.07763229568013895 0.03161149038289893 2.110709545364373e-15)
(-0.08321977400216163 0.03390692797722893 2.258946489858267e-15)
(-0.08854542131985585 0.03610026048265953 2.398002346948668e-15)
(-0.09353830084548125 0.0381628997832063 2.528768411760619e-15)
(-0.09815612416710806 0.04007788420772693 2.647858811534078e-15)
(-0.1023824458281859 0.04183875750094719 2.760060937034573e-15)
(-0.1062209371479949 0.04344725816262908 2.861223616429743e-15)
(-0.1096890647698592 0.04491076318316538 2.951777389804132e-15)
(-0.1128124767699911 0.04624001570448288 3.033017910115374e-15)
(-0.1156206112921112 0.04744734661931922 3.108335354171049e-15)
(-0.1181435851681779 0.04854541430008699 3.173634846146452e-15)
(-0.1204101948630929 0.04954639508285229 3.234633752629523e-15)
(-0.1224467785315611 0.0504615230711907 3.288084972991618e-15)
(-0.1242766861195162 0.0513008769395439 3.3365062898787e-15)
(-0.1259201434139824 0.05207332703223033 3.380193884022147e-15)
(-0.1273943483089163 0.05278657722002032 3.419183369225129e-15)
(-0.1287136874075684 0.05344725611205716 3.454311870946627e-15)
(-0.1298900009822566 0.05406102841579355 3.487405691708028e-15)
(-0.1309328534207544 0.05463270901030675 3.515608698703243e-15)
(-0.1318497856600759 0.05516637017769175 3.542032599844439e-15)
(-0.1326465383372105 0.0556654373957522 3.565420001344927e-15)
(-0.13332724164932 0.05613277204442365 3.586255146518116e-15)
(-0.133894571876803 0.05657074098759157 3.604589392664564e-15)
(-0.1343498764971443 0.0569812738043625 3.621562360891047e-15)
(-0.1346932706409986 0.05736590875158776 3.635134848201811e-15)
(-0.1349237076903716 0.05772582859245055 3.648382277735251e-15)
(-0.1350390266591899 0.05806188731572696 3.657060571488813e-15)
(-0.1350359785354584 0.05837462859856631 3.664977392104348e-15)
(-0.134910233297676 0.05866429665086408 3.672720325519469e-15)
(-0.1346563688182054 0.05893083985127396 3.676230204987953e-15)
(-0.1342678423462079 0.0591739073511007 3.678169392020145e-15)
(-0.133736944751647 0.05939283857280572 3.677244265907791e-15)
(-0.1330547372044197 0.05958664525137235 3.675574665302692e-15)
(-0.1322109693767543 0.05975398536233611 3.667662095437452e-15)
(-0.1311939776267805 0.05989312791323011 3.659177658526811e-15)
(-0.1299905608604115 0.06000190712643965 3.64812969825156e-15)
(-0.128585830808164 0.06007766395836018 3.634611157099527e-15)
(-0.1269630321727233 0.06011717213354038 3.615797282474562e-15)
(-0.1251033262974379 0.06011654481600992 3.59967489016592e-15)
(-0.1229855293658765 0.06007111655925748 3.578156935467916e-15)
(-0.1205857920999188 0.05997529305075681 3.553061079796209e-15)
(-0.1178772015454245 0.05982235801971417 3.527500605926601e-15)
(-0.1148292751162455 0.05960422193641013 3.495195040603957e-15)
(-0.1114072995718078 0.05931108980009796 3.46238415451511e-15)
(-0.1075714373745621 0.05893101372916105 3.422431548736626e-15)
(-0.1032754692622034 0.05844927730240294 3.392164380469081e-15)
(-0.09846494417174137 0.0578475274167367 3.347065050673267e-15)
(-0.09307432455673298 0.05710251626724058 3.307968730615179e-15)
(-0.08702236106604394 0.05618422394086962 3.259328784162643e-15)
(-0.08020422179960406 0.05505297050415529 3.211978456673805e-15)
(-0.07247743369623755 0.05365481387729584 3.163402848650298e-15)
(-0.06363551214257647 0.05191381745040569 3.11922358135028e-15)
(-0.05335574926779266 0.04971811350562023 3.061873935812622e-15)
(-0.04108666513736084 0.04689914098689368 3.009490596478144e-15)
(-0.02582999367612719 0.04320237797712164 2.959504363635406e-15)
(-0.005918338049937357 0.03825222285654998 2.888592480331294e-15)
(0.02114984384852856 0.03159411523797726 2.803078386617281e-15)
(0.05911735706880875 0.02273216267845199 2.680171775252172e-15)
(0.1139489000370623 0.01097027935562431 2.487811309442706e-15)
(0.1932920818485534 -0.00414150526325141 2.196245616950665e-15)
(0.3058111628600125 -0.02257219966626616 1.769115439770523e-15)
(0.4633108003329248 -0.04150556023451647 1.216735161625712e-15)
(0.663372716354068 -0.05444927929273284 6.515102492469382e-16)
(0.8606631801036314 -0.0599589952043595 2.864978948164757e-16)
(0.9979370964433443 -0.06344612018485368 2.467726772851603e-16)
(1.065501342582398 -0.06809493921337574 3.798683475772092e-16)
(1.096746725999132 -0.0723316233194944 4.463193855880265e-16)
(1.122389868874699 -0.07461709776509731 2.553066244065111e-16)
(1.149965513641372 -0.07547896771363166 -3.504708167869726e-16)
(1.174543651434373 -0.07559845341388007 -1.301145330866593e-15)
(1.19093840685026 -0.07506321076298185 -1.979803269816782e-15)
(1.197795461223181 -0.07389174501569391 -1.346773774248515e-15)
(1.197764071990383 -0.07216043136196384 1.257360243709545e-15)
(1.195088208543953 -0.06988351732745771 5.610472319300662e-15)
(1.19245391889538 -0.0671237162104007 1.074749781169692e-14)
(1.190259808586546 -0.06399201298320242 1.509454373692726e-14)
(1.18802718778295 -0.060602216996088 1.728786992398616e-14)
(1.185493034434725 -0.05695489868689135 1.730437383907524e-14)
(1.182669528160262 -0.05312646055596291 1.600027861196879e-14)
(1.179621302817272 -0.04907912790415046 1.398477217571346e-14)
(1.176420858434842 -0.04497364198998 1.145345865829806e-14)
(1.173102550793685 -0.04068940233929835 8.578392163663873e-15)
(1.169782037561007 -0.03650640576656954 5.640168026260139e-15)
(1.166377009481893 -0.03212740840177203 2.649749553409002e-15)
(1.163126751923941 -0.02804540534406502 -1.188247283451119e-16)
(1.159744266415429 -0.02363657443783625 -1.645426297443583e-15)
(1.15394096517167 -0.01945165451280037 -1.561236664745485e-15)
(1.140405850808512 -0.01429021883705714 -7.599430033810076e-16)
(1.122877762310418 -0.009599469628501049 -2.351531166376133e-16)
(1.110150559357993 -0.005348348789864723 -6.315554927589041e-17)
(1.11851771629126 -0.003704944596155289 -3.875674848857657e-17)
(-0.00167215107396528 0.0006587438167469972 4.667832390894033e-17)
(-0.005038774547656403 0.001984919811732121 1.405557989966392e-16)
(-0.008451801516263102 0.003330211220633307 2.348226277308489e-16)
(-0.01193625734296619 0.004704447061268403 3.314650041802713e-16)
(-0.01551781197665337 0.006117728736720277 4.291245892420384e-16)
(-0.01922284053127574 0.007580512637669568 5.304765552393592e-16)
(-0.02307840482289067 0.009103568610720612 6.360047358485734e-16)
(-0.02711202317906108 0.01069787267291109 7.466731769741829e-16)
(-0.03135106841156066 0.0123743720358051 8.621984425267053e-16)
(-0.03582154732408014 0.01414350894303013 9.818481295424588e-16)
(-0.04054590343660924 0.01601435751534916 1.108479257910485e-15)
(-0.04553941685919649 0.0179932050007857 1.241876814360364e-15)
(-0.05080489589013099 0.02008145567407122 1.382070244951661e-15)
(-0.05632591183802125 0.02227295422448674 1.528581288497459e-15)
(-0.06206003786591188 0.02455130295330356 1.680255782392766e-15)
(-0.06793513449627028 0.02688837400410549 1.834386556753921e-15)
(-0.07385236058298063 0.02924547384520908 1.989481601056606e-15)
(-0.07969753040533169 0.03157780890659356 2.141471479544145e-15)
(-0.08535792638075891 0.03384111894426212 2.288236101923023e-15)
(-0.09073824444040893 0.03599798254472115 2.428246446990663e-15)
(-0.09577027245607127 0.03802165685733677 2.558639539431462e-15)
(-0.100414967269805 0.03989691745041198 2.680733565817599e-15)
(-0.1046589836555247 0.04161870485835996 2.790636097623591e-15)
(-0.1085086143603794 0.043189744937232 2.892073890522877e-15)
(-0.1119833724866481 0.04461802422488357 2.983530254919047e-15)
(-0.1151104106497904 0.04591459245915747 3.065831788384217e-15)
(-0.1179202181916949 0.04709186733995239 3.139828616780961e-15)
(-0.1204436121404839 0.04816244859217221 3.204974688981846e-15)
(-0.1227098328629408 0.04913836750060942 3.264726050253843e-15)
(-0.1247454840053747 0.05003066970169766 3.316313385704416e-15)
(-0.1265740617699438 0.05084923092733772 3.364319611293588e-15)
(-0.1282158613203858 0.05160272210545289 3.408258279689178e-15)
(-0.1296881019862897 0.05229866137956632 3.447773544453848e-15)
(-0.1310051628516399 0.05294351025439022 3.483353252153914e-15)
(-0.1321788598257763 0.05354278662665671 3.515418502091253e-15)
(-0.1332187235138796 0.05410117863318235 3.544293334080048e-15)
(-0.134132256073211 0.05462265065271833 3.570567805379797e-15)
(-0.1349251568813021 0.0551105374305233 3.594061741566302e-15)
(-0.1356015137243847 0.05556762500083078 3.61529092754441e-15)
(-0.1361639599256665 0.05599621855446089 3.63263104016487e-15)
(-0.136613799633073 0.05639819811343983 3.649208134660157e-15)
(-0.1369511041666134 0.05677506313752453 3.663368018549159e-15)
(-0.1371747823544302 0.05712796720029995 3.673817042974124e-15)
(-0.137282627509023 0.05745774375511288 3.683723416951632e-15)
(-0.1372713432654842 0.05776492382347283 3.691412603094012e-15)
(-0.1371365499811721 0.05804974622580512 3.69748069797176e-15)
(-0.1368727728991115 0.05831216074092224 3.69960027814031e-15)
(-0.1364734127379257 0.05855182434645213 3.701540537367815e-15)
(-0.1359306988717609 0.05876809043753898 3.701563696376984e-15)
(-0.1352356247113163 0.05895999065037641 3.697753176267044e-15)
(-0.1343778643355244 0.05912620860680869 3.691700198337223e-15)
(-0.1333456687661767 0.05926504453606146 3.682300703969189e-15)
(-0.1321257395150627 0.05937436927767883 3.67025932714853e-15)
(-0.1307030760464252 0.05945156559941406 3.658740284503653e-15)
(-0.1290607925048473 0.05949345400716743 3.638900278916216e-15)
(-0.1271798972450831 0.05949619918910213 3.619557812403634e-15)
(-0.1250390260614803 0.05945519178506824 3.595073254861871e-15)
(-0.122614116009694 0.05936489809980632 3.568925249758888e-15)
(-0.1198780004343235 0.05921866732621128 3.543090750920866e-15)
(-0.1167998956370156 0.05900848126746801 3.512395509845269e-15)