/*--------------------------------*- C++ -*----------------------------------*\
| =========                 |                                                 |
| \\      /  F ield         | OpenFOAM: The Open Source CFD Toolbox           |
|  \\    /   O peration     | Version:  v1812                                 |
|   \\  /    A nd           | Web:      www.OpenFOAM.com                      |
|    \\/     M anipulation  |                                                 |
\*---------------------------------------------------------------------------*/
FoamFile
{
    version     2.0;
    format      ascii;
    class       volScalarField;
    location    "0.00000106";
    object      betaFieldInversion;
}
// * * * * * * * * * * * * * * * * * * * * * * * * * * * * * * * * * * * * * //

dimensions      [0 0 0 0 0 0 0];


internalField   nonuniform List<scalar> 
44064
(
1.500014383489171
1.499715315031791
1.497102999499071
1.486504007406628
1.457411351192898
1.39456148122035
1.282479265658708
1.117158154637585
0.9180887671120728
0.7241469898369575
0.5741406880482781
0.4715119254887075
0.4186463440067998
0.3979927130598545
0.3875853090940218
0.38932524698496
0.4001057564371129
0.4165093194517983
0.4371505375629438
0.4626657870995753
0.4930122702079314
0.5267299594374543
0.561452114961618
0.5953347850606892
0.6276826447933956
0.6561062005684138
0.6810035902048998
0.7034808483133073
0.7233873891732534
0.7403358736199573
0.756473909997064
0.7730481609982419
0.7907312769228327
0.8098524814261694
0.8319970950313406
0.8541855611468638
0.8757436215941268
0.9081757144138749
0.9456574451897967
0.9877282435549745
1.036665192679203
1.0994910017152
1.168047542678672
1.232807354981773
1.291143897681384
1.343391886498386
1.389248761579552
1.425661136331792
1.452079207783691
1.470126918328461
1.481953653746365
1.489446531645949
1.494116544238558
1.496959152165263
1.498584518325129
1.499418424729715
1.499802981416886
1.499957453579577
1.500006563707454
1.500016302374669
1.500018913771986
1.500020256409332
1.500020531514706
1.500020887787399
1.500021277282026
1.500021383024853
1.500021473987163
1.500021510613545
1.500021544777971
1.500021612050026
1.500021743322215
1.500021967607977
1.50002228811897
1.500022670959374
1.500023058772857
1.500023381905263
1.500023627901884
1.500023718091365
1.500023607162152
1.500023289562383
1.500022977635846
1.500022937873677
1.500023130731416
1.50002336307633
1.500023430061697
1.500023388100745
1.500023382239239
1.500023356948347
1.500023303730857
1.500023247732386
1.500023166324021
1.500023046211172
1.500022907851118
1.500022762858819
1.500022594139466
1.500022396017678
1.500022207106257
1.500022053182231
1.500021925319172
1.50002182613521
1.500021777028709
1.500021730925302
1.500021564373118
1.500021531925427
1.500021813430374
1.500020950688562
1.500034964494912
1.225878060164884
1.500018849629478
1.499904718991191
1.498874253565413
1.494547346294256
1.482209135218813
1.454193543903413
1.400428826817033
1.312017959405122
1.188111340748471
1.041392233606388
0.8954070433311748
0.7739862121257508
0.6913039167033408
0.6399767071049215
0.6087325425658923
0.5952157742522158
0.5898595719384675
0.5926435779289582
0.6028932371935799
0.6198358470482839
0.6430537809272335
0.6719180281840327
0.7040746693181774
0.7370651251904631
0.7658592023456344
0.7844935670408836
0.8017861837452079
0.8093662484962462
0.8144472330145919
0.8179969917346286
0.8197185243569084
0.8224950610287436
0.8241034978149225
0.8252384491015188
0.8323402192942168
0.8352707994756635
0.8456947033839317
0.8517199274710072
0.8513275181323163
0.8487988186197615
0.8459953121417068
0.8438000449718069
0.8421119582393785
0.839926056887881
0.8423059549896138
0.8466980952685053
0.8946438555826633
0.9510403592238624
1.018802542162848
1.094746990132358
1.182268676591003
1.262973769540768
1.339540446423359
1.399704846958519
1.439065838987007
1.46431782264408
1.480081019113611
1.489758856128521
1.495334481377574
1.498190821257644
1.49942970215049
1.499856735383277
1.499980693813604
1.500011811996695
1.500019269656816
1.500020876455714
1.500021368032061
1.500021346247121
1.500021503194256
1.500021624817168
1.500021762710083
1.500022020903056
1.500022422776911
1.500022909509656
1.500023406332627
1.500023821915059
1.500024151636872
1.500024291885436
1.50002417925393
1.500023779242896
1.500023361362625
1.500023296920855
1.500023549263912
1.500023874481492
1.500023991687079
1.500023967616863
1.50002400312285
1.500024034834428
1.500023991251919
1.500023845453835
1.500023739937777
1.500023722755611
1.500023703527777
1.500023639447283
1.500023536396055
1.500023349533585
1.500023092553816
1.500022811301153
1.500022549825133
1.500022347560614
1.500022247751978
1.500022134834621
1.500021701868489
1.50002161965129
1.500022267865319
1.500020411484261
1.500117005948429
0.8594042571443465
1.500019756507642
1.499945161582645
1.499271445185382
1.496439562923682
1.488335038442347
1.469744976764511
1.43326441735196
1.37082772834642
1.277837182933073
1.158369733188694
1.026878545051502
0.903257595012125
0.8044975750996466
0.7389716822675397
0.699633399354616
0.6786113213346397
0.6611696230366992
0.654878924290082
0.6591683201816375
0.6706468183106502
0.6900405005607599
0.7159254436854803
0.7461174087813409
0.7739370694346225
0.8026900055046388
0.8304449515792307
0.8537668253635644
0.8682532900098193
0.8768479835647749
0.8836378212404411
0.8891253506717306
0.8936319275399449
0.8974154708250853
0.9006799727960361
0.9035813404100034
0.9062330624892917
0.908713457595495
0.911083886183782
0.9134370205314881
0.915949657547345
0.9189050817149483
0.9226872561438493
0.9275172158256252
0.949282733238256
0.962664314440895
0.9677017933043515
0.9710966785860869
0.976988857688768
0.9867871488965652
0.9999755724693534
1.02006797965095
1.06612509520056
1.122743862840603
1.185583487650411
1.258282228336973
1.323764102099214
1.384829786345834
1.431907436974226
1.461612189700322
1.480191755534694
1.490739985157835
1.496200257320618
1.498671926508143
1.499616871142337
1.499908905815691
1.499990466326944
1.500015185252676
1.500020963299998
1.500021463664084
1.500021496860524
1.500021593180101
1.500021717611492
1.500021913533511
1.500022167070348
1.500022443858494
1.500022694753666
1.500022918904275
1.500023058770945
1.500023053277512
1.500022850039546
1.500022608827205
1.500022580774683
1.500022772617878
1.500023040081147
1.500023181723508
1.500023223624078
1.500023311046531
1.500023402593291
1.500023476777701
1.500023520417213
1.500023538523114
1.500023539443015
1.500023506803293
1.5000234368786
1.500023349926425
1.500023184776642
1.500022941195678
1.50002267243792
1.500022426577386
1.500022243428348
1.500022156057662
1.500022063005454
1.5000216794511
1.500021612677847
1.500022251671019
1.500021108213707
1.50032671070821
0.5013851454988028
1.500020398863242
1.499973818948205
1.4995530770374
1.497783504117462
1.492707264605088
1.480981697585081
1.457597242019996
1.416337348437354
1.35180935508601
1.262964983519644
1.155961744253266
1.043505518917568
0.9407330781987282
0.8589395609992865
0.8037633044738357
0.769942010770861
0.7520748301564341
0.7378889739038387
0.7314544777047668
0.7355569370495344
0.7488360039166483
0.76976883416705
0.7932201313321179
0.8213390113939885
0.8523291687063518
0.8821536561318019
0.9072312526468244
0.9255377426060779
0.9352053669131588
0.9425634324895558
0.9485593659904519
0.9535481404143986
0.9578044904015657
0.9615474686188458
0.9649536849013606
0.9681694802079018
0.9713225356912014
0.974532127645983
0.9779187341984168
0.9816121993413073
0.9857499631620221
0.9904493238166322
0.9957511966039636
1.001564330844586
1.00771852454871
1.014181098466527
1.021231300815465
1.038081415662738
1.054076901795175
1.06280826706977
1.072825623926937
1.082279591759938
1.094499902954647
1.12401221824103
1.170134448777721
1.225165196180889
1.28081753688783
1.341819952299689
1.391394133700043
1.433769884902416
1.462936695800848
1.481511366428511
1.491805641388442
1.496802403949085
1.49892167058355
1.499661835480488
1.499899599879342
1.499989546743564
1.50001733385761
1.500021384703193
1.500021566747884
1.500021701222073
1.500021898321259
1.500022147162456
1.500022419309789
1.500022661912681
1.500022877652439
1.500023011311305
1.500023001002434
1.500022788844096
1.500022533556199
1.500022481090349
1.500022634966058
1.500022856622094
1.50002295831802
1.500022964952373
1.500023007668726
1.500023049460613
1.500023076014051
1.500023082256087
1.500023072688783
1.50002304924539
1.500023001726055
1.500022912984793
1.500022803229522
1.500022659331532
1.500022487611074
1.500022310788991
1.500022149503925
1.50002202866399
1.500021971461694
1.50002190491315
1.50002163379576
1.500021588247276
1.500022101533595
1.500019706484433
1.500682728252738
0.08668981645600077
1.500020701179083
1.499987306962669
1.499685654407874
1.498416586087935
1.494771616180162
1.486320157304203
1.469313315560367
1.438782440323471
1.389666418092376
1.319259472267964
1.229924431915077
1.129941678612973
1.031230852695325
0.9457122756196593
0.8815478148511733
0.8373256185690759
0.8079880199064883
0.7954184793222231
0.7870323974858867
0.7864268614892629
0.7939531746873668
0.8086239407587478
0.8272783858117618
0.8544368222876215
0.8852816052134737
0.9154753991402214
0.9412334560805948
0.9616001149952602
0.9717989782156301
0.9790521404482274
0.9849016694890425
0.9897322821118368
0.9938249801713167
0.9973983392519353
1.000621922740323
1.003628230439989
1.006524443465015
1.009401086134962
1.012340332662629
1.015425806210726
1.01874636820933
1.022385039364141
1.026393784266437
1.030786074250182
1.035569664536095
1.040793478330702
1.04654559168685
1.05286093266269
1.059674190788067
1.06695889492131
1.074516046900215
1.082770280679417
1.107160531346962
1.124595527225472
1.148236563864989
1.183440521744633
1.230404181521066
1.279371002567414
1.335008711043108
1.38587688344019
1.426814684430665
1.45652243279753
1.477528515698294
1.48976060215733
1.495899562544259
1.498506061570714
1.499451824827518
1.499784775042789
1.499951067726104
1.50001097938537
1.500021109867339
1.500021693070929
1.50002191904519
1.500022194741818
1.500022497621476
1.500022766875337
1.500023011113949
1.500023170772251
1.500023171580561
1.500022935433957
1.500022640568182
1.500022570796411
1.500022734476992
1.500022978774078
1.500023089885222
1.500023092741848
1.500023135998185
1.500023176920573
1.500023200495938
1.500023204258475
1.50002319008454
1.500023158974555
1.500023103198637
1.500023011695953
1.500022897569797
1.500022732443903
1.500022528923387
1.500022323264342
1.500022140335414
1.500022004866992
1.500021935971068
1.500021861124466
1.500021620387591
1.500021580031698
1.500022633406148
1.499988111652708
1.50124829304318
0.09607910838114389
1.500020925514236
1.49999731556018
1.49978403614031
1.498886541484035
1.496306157778809
1.490304143720691
1.478134245232351
1.455960348128795
1.419404779234551
1.36512360363433
1.293024365869235
1.207722295993785
1.117850591256297
1.034022108144476
0.9644637755729152
0.9147234153654727
0.8819934887916145
0.860066831492193
0.8545007942271013
0.8533582291660964
0.8597035210519037
0.8739161907410211
0.8816815179931262
0.9041286769699786
0.9339680310383176
0.9635928368140949
0.9896874882677477
1.009612140007283
1.020978620044593
1.027818966619743
1.033221622824378
1.037646311999971
1.041393820905297
1.044695900605855
1.047728496283137
1.050624199542689
1.053483768507073
1.056385630376153
1.059394438471045
1.062568977266269
1.065965116219482
1.069626001024875
1.073559432799673
1.07773081694767
1.082097238865698
1.086666277213736
1.091531248206323
1.096863253127019
1.102895538121812
1.109920582936404
1.118287020868689
1.128387712053091
1.14042334401958
1.160211387432222
1.178570639855051
1.202918117545726
1.231726665608213
1.267677886170111
1.308746430786416
1.357512931448245
1.403294021360473
1.439421263456691
1.464232051634839
1.481525813680435
1.491649594345182
1.496642663759725
1.498698766086345
1.499375274588707
1.499698049458355
1.49992388582856
1.50000811114172
1.500021216954243
1.500021924105988
1.500022218197665
1.500022538766225
1.500022826232051
1.50002309349092
1.50002327832426
1.500023294388605
1.500023042408929
1.500022716412688
1.500022632061051
1.500022803662545
1.500023068950488
1.500023191769582
1.500023194672304
1.500023242269583
1.500023287854134
1.500023313910452
1.500023319426222
1.500023304653501
1.500023267504196
1.500023202669325
1.500023103676368
1.500022983625225
1.500022806318586
1.500022583653812
1.500022358588688
1.500022160369976
1.500022014328227
1.500021940833766
1.500021869593514
1.500021604988812
1.500021563283535
1.500028093930871
1.499859511047397
1.50244289604543
0.3442927565734428
1.500021062248616
1.500003415875163
1.49984400366232
1.499173083326666
1.497242864067625
1.492743853137928
1.483575084628744
1.466698934144376
1.438395820667845
1.395293414350566
1.336094321419185
1.263102756660151
1.182380070018507
1.102457389205116
1.031516407701452
0.9760927891405277
0.9352047644400104
0.9056879408185164
0.8869413038680982
0.8804686518150409
0.8822174014641984
0.8950466443645807
0.9160244247140411
0.9411164938516402
0.9724776152394475
1.003082819055795
1.030232442373007
1.050157223717592
1.06219443526406
1.068278942221578
1.072821468578108
1.076398558890227
1.079364122274526
1.081986028894395
1.084464610626087
1.086948824407027
1.089549263656159
1.092349102776628
1.095414435539272
1.098802361670706
1.102564091879421
1.106735089898826
1.111311131920842
1.116237117032717
1.121436642753229
1.126869201518438
1.132564404195206
1.138610425540149
1.145135040870609
1.152305633732013
1.16033755750196
1.169499395425415
1.18010435508875
1.192467181790205
1.206819654682107
1.228284126353268
1.249438372771064
1.277461239304641
1.309874188174664
1.346502775290055
1.389954070328739
1.429348754389755
1.460418812120299
1.479251936347269
1.490467579572485
1.495906952628552
1.498278114520524
1.499152263728607
1.499343109733685
1.499660177682588
1.499926002475796
1.50001132349594
1.500021688256537
1.500022229884685
1.500022571355059
1.500022875049951
1.500023163304482
1.500023371872212
1.500023401938361
1.500023134150846
1.500022779047339
1.500022679966794
1.500022855310793
1.500023135634783
1.500023266447174
1.500023267147923
1.500023315567463
1.500023363251071
1.500023390075802
1.500023396066731
1.500023381380703
1.50002334488237
1.500023279605223
1.500023177171411
1.500023052638142
1.500022867576958
1.500022632700258
1.50002239343911
1.500022182072295
1.500022023375529
1.500021941333986
1.500021882619351
1.500021584070588
1.50002148441794
1.500035110682504
1.499833833152442
1.505078318067059
3.964946286622029e-05
1.500021158577693
1.500007713607127
1.49988625347049
1.499375003489305
1.497903394100376
1.494467609568213
1.487436506377037
1.47438538904893
1.45217863128467
1.417624382080546
1.368784730770652
1.306402137441332
1.234552175565569
1.159698705660966
1.089653675327925
1.030508696335307
0.9866340203544937
0.9545549715304529
0.9367505169501059
0.9275922682891719
0.9281499829615729
0.9382303063501205
0.9562063866741665
0.9806062869808675
1.011171811792286
1.041497724556478
1.068685043988653
1.089134947211098
1.10170033891127
1.107267745199066
1.111168065652541
1.114048371280706
1.116295931412024
1.118204817352084
1.119996898920986
1.121839032133145
1.123856509885677
1.126144498725378
1.128778620269085
1.131823108041126
1.135333653142703
1.139346167029395
1.143850104575358
1.148775646383833
1.154025150134175
1.159533926893468
1.165305685965069
1.171397055378845
1.1778927041909
1.184902613360474
1.192572614598258
1.201099118734667
1.210743931719136
1.22184310223521
1.234797106597139
1.249998311853227
1.267780356657271
1.292892058278815
1.318837866881253
1.347321593396937
1.38406371839879
1.423845083483601
1.458661332138703
1.482950733551976
1.49552735195533
1.499411527567214
1.499712196456056
1.499532026681637
1.499259275421329
1.499287680291103
1.499690591681515
1.499955760503461
1.500017453144356
1.500022213937362
1.50002261999666
1.500022942445761
1.500023253187399
1.500023486181689
1.500023530844902
1.500023246615512
1.500022861255675
1.500022750889181
1.500022937394092
1.500023241237506
1.500023385542245
1.500023387894278
1.5000234425263
1.500023497977297
1.50002353186683
1.500023544043861
1.50002353521444
1.500023504239598
1.500023443839531
1.500023343985249
1.500023221070349
1.500023031967784
1.500022786639094
1.50002253353088
1.50002230855139
1.500022139795564
1.500022055329555
1.500022002522967
1.500021685647337
1.50002154080029
1.50003821399676
1.500357299054871
1.508584991867203
0.3843386081843188
1.500021222877918
1.500010582399082
1.499914456861447
1.499509815222437
1.49834466292337
1.4956211726742
1.490031019225109
1.4795900771814
1.461631605310675
1.433228554012905
1.392195522810454
1.338355938186133
1.274380880664687
1.205421760394703
1.138362650010544
1.07927773341572
1.032506084445729
1.000882031415129
0.9820663347295087
0.9707093090434213
0.9685062370837815
0.9755233005868411
0.9903443424070453
1.014681928837184
1.044609508914367
1.074681861470506
1.101903586979767
1.12286145756189
1.135759585548744
1.141056347637506
1.144532856200945
1.14695296280483
1.148726683226646
1.150165075255036
1.151505210687719
1.15292748227862
1.154569413601537
1.156537946319234
1.158919829677598
1.16178973978376
1.165212780098697
1.169231872405474
1.173839081922154
1.178961136854418
1.184489787148217
1.190342123911109
1.196497451314682
1.202981855784791
1.209839420778737
1.217125991204043
1.224918338705956
1.233328713493258
1.24251984751214
1.252719592351814
1.264236916562336
1.277474913876769
1.292918530445979
1.311001702210491
1.332385010200815
1.357711589846649
1.387846984916572
1.423245524768223
1.459498090222419
1.489219883182385
1.505386053447242
1.509169723565486
1.505626960565993
1.501822711973875
1.499886430590182
1.499071231089979
1.499323454625096
1.499790901555176
1.499991853218919
1.5000212854623
1.500022684205366
1.500023026103096
1.500023357502906
1.500023609400349
1.500023666015873
1.500023367132478
1.500022952638619
1.500022833045273
1.500023033641628
1.500023363092104
1.500023521114951
1.500023525764294
1.500023588528073
1.500023652622132
1.500023694546796
1.500023714108069
1.500023712283025
1.500023687675586
1.500023633032126
1.500023537095985
1.50002341715714
1.500023225235175
1.500022972410739
1.500022709817124
1.500022475023287
1.500022308575376
1.500022234666958
1.500022116085643
1.500021953827321
1.500021781926898
1.500055447381607
1.501326295318836
1.511998116190457
0.004077806215348891
1.500021269480368
1.500012661598004
1.499934898119276
1.499607534695296
1.498664655727313
1.496458748249824
1.49192046340568
1.483402825179853
1.468626368205607
1.444949233483092
1.410136165040288
1.363455730775665
1.306565290737429
1.243542933890821
1.180347664376654
1.122719591769484
1.075309555876419
1.041509143286543
1.01843440000519
1.003733084472193
1.00150502068865
1.008220542319361
1.023515734100732
1.046940481575386
1.076225508467612
1.105910246624423
1.13295043807514
1.154391540785972
1.167278703951409
1.17237342727445
1.175467336950794
1.17748822674376
1.178862738333279
1.179911176279561
1.18087804551902
1.181950127233855
1.183271443572541
1.184955650557273
1.187096449471621
1.189775756828493
1.193065981308256
1.197017041854531
1.20162654850225
1.206826149936074
1.212512932171325
1.218607796426147
1.22509057905968
1.231983350999126
1.239320143217854
1.247138814450827
1.255487907514644
1.264437473882578
1.27408732626249
1.284573114018678
1.2960762104039
1.30884009329705
1.323193267953955
1.339557240968587
1.35846159873595
1.38065865082193
1.406128607244234
1.435820580407464
1.468157480570701
1.498154644062428
1.517447350642238
1.52215425838814
1.516389909415576
1.507162918946035
1.50165839374919
1.499423422110427
1.498966601029016
1.499499743655063
1.499907888006858
1.500014395969856
1.500022663229273
1.50002310745781
1.500023450804257
1.50002371317194
1.500023778140152
1.50002346911472
1.50002303011048
1.500022902178819
1.50002311390114
1.500023462662153
1.500023628737282
1.500023632668014
1.500023699918771
1.500023767001458
1.500023811330001
1.500023832344779
1.500023829952432
1.50002380293013
1.500023743931086
1.500023641205226
1.500023512405883
1.500023307693539
1.500023040918444
1.500022763547271
1.500022508287955
1.500022329463051
1.500022262989562
1.500021967909624
1.500022141822411
1.500021887375562
1.500136313404573
1.501160811911805
1.507717343473447
1.187092305497085
1.500021300199172
1.500014032131254
1.499948372419529
1.499671953764059
1.498875670734138
1.497011602739016
1.493170403237241
1.48593597626277
1.473306305239782
1.452868822245067
1.422408153090837
1.380863417872471
1.329214455519931
1.27071085329329
1.210588042720177
1.154249222236738
1.106377209343313
1.070720891050866
1.045481802920427
1.031574694945778
1.025785937565365
1.031880627143831
1.047783542079898
1.071415483473415
1.100446431449431
1.129978143466982
1.156980030393061
1.178719921163921
1.192029264977556
1.197094875758078
1.199966902694104
1.20172058550215
1.202800761188428
1.203538720416328
1.204187908094819
1.204943219268217
1.205956179363539
1.207347266183949
1.209216311298696
1.211650757984087
1.214728344761735
1.218505320802969
1.222989410123679
1.228125772221725
1.233826110055984
1.240025898072539
1.246715685905828
1.253922397292316
1.261680820246303
1.270025738834107
1.27899634257828
1.288643407947352
1.299033595735448
1.310252153219957
1.322408175948553
1.335642031126701
1.350133658897254
1.366112976621198
1.383827992950483
1.40374564819902
1.426138251274003
1.451229228940496
1.478812402006209
1.505769866711091
1.526337706435504
1.534120847114847
1.528429820176258
1.51559504297595
1.505031951936519
1.500251987262865
1.498778503440317
1.499136434662563
1.499728876665737
1.499985981026037
1.500021777854261
1.500023168639546
1.500023525429718
1.500023794279295
1.50002386673048
1.500023551503844
1.500023091511096
1.500022953973998
1.500023172170955
1.500023534167822
1.500023704377949
1.500023706017361
1.500023776338211
1.500023843198568
1.500023885217289
1.500023904022171
1.500023897458129
1.50002386463578
1.500023798227355
1.500023685139691
1.50002354414222
1.500023324209282
1.500023041520124
1.50002275161597
1.500022480859725
1.500022282893823
1.500022265313914
1.500021829702711
1.500022199223032
1.500024690510586
1.500369206554316
1.502590198088105
1.507231572355433
0.1783419590786549
1.500021323628319
1.500015077430038
1.499958649245621
1.499721087965458
1.499036645622206
1.49743359051709
1.494125828656329
1.487878057737832
1.476913600796407
1.459024911205896
1.432059733592243
1.394756532001654
1.347601381018566
1.293179836051895
1.236091772142593
1.181365701878781
1.133637530223834
1.096241769039505
1.071463162058702
1.05595339640184
1.050664627206143
1.055583421653504
1.069819529400372
1.093741635393746
1.122287785070154
1.15143829674774
1.178164514037076
1.199908950100054
1.213521423357189
1.218868226219341
1.221655373099698
1.223280881888498
1.224203959937524
1.224761754884855
1.225213874236291
1.225761292512497
1.22656180416627
1.227741776646973
1.229406140363978
1.231647137235668
1.234546796833138
1.238163873900115
1.242504947982207
1.247511968406675
1.253097202338239
1.259203917180908
1.265832659200776
1.273016747220266
1.28079582140868
1.289210532323955
1.298304727082393
1.308128897915293
1.318743375349595
1.330220075289126
1.342641335992763
1.35609572368535
1.370674345611388
1.386473943824037
1.403620768467646
1.422331396317009
1.442725511903248
1.46500607096787
1.488859868747226
1.512972616238283
1.533282852756062
1.543087286263593
1.539310671177065
1.525736386982612
1.510439857254735
1.502044013757378
1.49912664564272
1.498823933486069
1.49946635978408
1.499912488485714
1.500016934945518
1.500023179523005
1.500023588030289
1.500023867514828
1.50002395093528
1.500023628895804
1.500023146335548
1.500022997931789
1.500023222437644
1.500023598770644
1.500023774633433
1.50002377462729
1.500023848712472
1.500023917682679
1.500023960536722
1.500023980587034
1.500023974199605
1.500023941574083
1.500023874274186
1.500023758225931
1.5000236140954
1.500023387732127
1.500023094279761
1.500022795158457
1.500022513910859
1.500022275482972
1.500022356879932
1.50002182136147
1.500022308557312
1.500046631655506
1.501006853458061
1.503480178499522
1.505135016487511
0.2877346401663969
1.500021339804299
1.500015799133278
1.499965744848981
1.499755016316211
1.499147845498981
1.497725405341262
1.494788090708425
1.48923004032516
1.479441303280641
1.463375170119518
1.43894565043919
1.404767410968331
1.360980784119
1.309695452058145
1.255011099745452
1.201723672493985
1.154447775896188
1.116662678155081
1.091056923273149
1.075454276042481
1.069733215416784
1.074057929132316
1.087462913372285
1.110860916873314
1.139146266346432
1.168208492064419
1.194948460187515
1.216972224539888
1.231050260449583
1.236885875113196
1.239780011511806
1.241470295150861
1.242432073827981
1.24300579927052
1.243452843115498
1.243974892119591
1.244728700398413
1.245838588395272
1.247407483396898
1.249524912144404
1.252269490657129
1.255697907839015
1.259819449404547
1.26458623514781
1.26992811105091
1.27580724461642
1.282236238374951
1.289254119501542
1.29690627688135
1.305242138195194
1.31431664125394
1.324191269542802
1.334932774110672
1.346607909665878
1.359273185642371
1.372960693741903
1.387668799810776
1.403374924969228
1.420055655127847
1.437772740309867
1.456629815223874
1.476860253108454
1.498172235829484
1.519860515452988
1.538719878334007
1.550036364601069
1.548630613666316
1.535539467703392
1.517500862535097
1.504618241856994
1.499626723843374
1.49866444353529
1.499152189223796
1.499771787478435
1.499999674604435
1.500022885787356
1.500023649638302
1.500023943126598
1.50002404014172
1.500023708999537
1.500023201637403
1.50002304180795
1.5000232732037
1.500023665842873
1.500023848882582
1.50002384740458
1.5000239252313
1.500023997351938
1.500024042343761
1.50002406482037
1.50002406015122
1.50002402889111
1.50002396293958
1.500023847694455
1.500023704403507
1.500023476076202
1.500023174118505
1.500022868081761
1.500022593607626
1.500022290209001
1.500022467848198
1.500021957475122
1.500024478184884
1.500153815673244
1.501750661772514
1.503388321784502
1.502996743175079
0.3861752949000887
1.500021352940356
1.500016385206279
1.499971506846894
1.499782564913589
1.499238103173648
1.497962048289611
1.495324187058886
1.490321503920944
1.48147582614122
1.466869726912235
1.444479167284919
1.412840115810142
1.371844907367388
1.323237833846362
1.270787773946959
1.219043530929929
1.172608063225606
1.135134972923892
1.109533545005509
1.093747824852098
1.087520292981501
1.092241902874871
1.106762480871788
1.130726334628132
1.159337092830905
1.188550234777938
1.21533791365288
1.237510676797168
1.252040163663446
1.258322640346576
1.261335745543025
1.263086537564202
1.26405986348263
1.26459659578067
1.264958119521221
1.265345516044864
1.265914848538571
1.26678792492193
1.268062144440295
1.269819938999049
1.272132653017561
1.275052832724159
1.278594813491856
1.282728473729345
1.287410714131408
1.292630211135062
1.298417599676248
1.304824940629786
1.311912575877242
1.31974831660856
1.328407386070499
1.337970275915267
1.348516268102884
1.360110778732508
1.372787836704938
1.386531324289478
1.401262555184788
1.416839568916455
1.433079655518102
1.449863385971728
1.467415334585153
1.485965916680064
1.505543836916434
1.525405766023752
1.543435468597542
1.555162709819355
1.555364355585624
1.544229336138479
1.52529851256394
1.508339992278858
1.500567321700479
1.49859654783704
1.498831773081691
1.499565420534117
1.49995599054811
1.500021254309797
1.500023711675112
1.500024028292637
1.500024135578677
1.500023793643633
1.500023261243887
1.500023090035454
1.500023327902768
1.50002373640649
1.500023926870059
1.500023923345918
1.500024002294476
1.500024075603896
1.50002412088436
1.500024142846753
1.50002413677589
1.500024103262664
1.500024034196307
1.500023914562461
1.500023767697364
1.500023535641073
1.500023226584694
1.500022905652151
1.500022659284392
1.500022304018589
1.500022539071422
1.500022827904721
1.500037969436885
1.500495267455414
1.502476167223437
1.502658554837015
1.501570348071174
0.4543665699419263
1.50002136387722
1.500016873149154
1.4999763040919
1.49980550393807
1.499313299775688
1.49815951116451
1.495773079987988
1.49124124719852
1.483207079470457
1.469882053651414
1.449322347933716
1.420025034999469
1.381687179414164
1.335742565257935
1.285622250417095
1.235655984288642
1.190392009469789
1.153577382601708
1.127676876277157
1.114033022275233
1.109972065037053
1.115341603839172
1.13179041220583
1.156151594952188
1.184584379026578
1.213337017361255
1.239498920998883
1.261122568376548
1.27559979797524
1.281901334822926
1.28469285546007
1.286178473643869
1.286840252735093
1.287012338719417
1.28695125634506
1.286855765455952
1.286881005471072
1.287148400705832
1.287755825703272
1.288786555200966
1.290312596888027
1.292388681638141
1.295038845078676
1.298255940666343
1.302029730708026
1.3063797712011
1.311359037216643
1.317037945156463
1.32349572096365
1.330819232079056
1.339101045566834
1.348434770536405
1.358905577392919
1.370566836416171
1.383392019014748
1.397251399162645
1.411868292030372
1.426866333091429
1.44212612405635
1.457946492964672
1.474720993523845
1.492659430748347
1.511579805947798
1.530651975081705
1.547905757360032
1.559488614834612
1.560885109660928
1.551414069372009
1.532979477704425
1.513069180618072
1.501911754112746
1.498603267733622
1.498559415499722
1.499314823283029
1.499872419768546
1.500015269553145
1.500023736165731
1.500024114066013
1.500024226215778
1.500023874674173
1.50002332249781
1.500023143368361
1.500023386940304
1.500023806560489
1.500023999303803
1.500023991829245
1.500024070000352
1.500024142103654
1.50002418416953
1.5000242005562
1.500024188527823
1.500024147952566
1.500024070492785
1.500023942023887
1.500023784256705
1.50002354287152
1.500023227439605
1.500022891577467
1.500022675342038
1.500022292085593
1.500022681128707
1.500027435667894
1.500095272506944
1.501051532160719
1.502627106449702