/*--------------------------------*- C++ -*----------------------------------*\
| =========                 |                                                 |
| \\      /  F ield         | OpenFOAM: The Open Source CFD Toolbox           |
|  \\    /   O peration     | Version:  v1812                                 |
|   \\  /    A nd           | Web:      www.OpenFOAM.com                      |
|    \\/     M anipulation  |                                                 |
\*---------------------------------------------------------------------------*/
FoamFile
{
    version     2.0;
    format      ascii;
    class       volScalarField;
    location    "0.00000106";
    object      k;
}
// * * * * * * * * * * * * * * * * * * * * * * * * * * * * * * * * * * * * * //

dimensions      [0 2 -2 0 0 0 0];


internalField   nonuniform List<scalar> 
44064
(
2.619450341239647e-07
7.277203132319156e-06
4.798494729443433e-05
0.0001683860890624775
0.0004247057541260654
0.0008680618771766546
0.001515138228354574
0.002321359039739869
0.003189773271927421
0.004018839948154162
0.004749105672955047
0.00537271423657972
0.005887060881399586
0.006298909508486996
0.006620287522918628
0.006864624955754111
0.007044615761732536
0.007171285246581541
0.007253758004508998
0.007299374957769124
0.007313946761465163
0.007302028550336203
0.007267167530838535
0.007212110268268495
0.007138971819600797
0.007049371899160149
0.006944541923876545
0.006825413123574428
0.006692688472143262
0.00654689944255029
0.006388451683401832
0.00621766436245108
0.006034801042723662
0.005840091678641989
0.005633747316579393
0.005415973142101444
0.005186989015004807
0.004947091912736065
0.004696803751001877
0.004437103422988733
0.004169716412294374
0.003897230874735725
0.003622477294687139
0.003346321159196068
0.003068274726732532
0.002788989892328916
0.00251050357230797
0.002235959711482622
0.001968884158293435
0.001712238655454958
0.001468478637297303
0.001239648552417488
0.001027439954503891
0.0008333958846316712
0.00065913953389029
0.0005062997303270229
0.0003761155438027825
0.0002689931122145888
0.0001842382285058822
0.0001200480403979619
7.374782953855373e-05
4.218025932538694e-05
2.21761426817672e-05
1.065936603440341e-05
4.715933641261573e-06
1.957574790085363e-06
7.902116550304473e-07
3.331029001677384e-07
1.662383501139891e-07
1.093354258650695e-07
9.122460903162596e-08
8.585549628500812e-08
8.437624833294249e-08
8.399842089655154e-08
8.390919135633112e-08
8.388973882190476e-08
8.388580410749533e-08
8.388503720116698e-08
8.388485972193245e-08
8.388477965187198e-08
8.388471178166409e-08
8.388464297174826e-08
8.388457170758835e-08
8.38844982297895e-08
8.388442305039064e-08
8.388434664810567e-08
8.388427057450012e-08
8.38841914579085e-08
8.388411256236648e-08
8.388404584508307e-08
8.388397746658584e-08
8.388390570252751e-08
8.388384139331938e-08
8.388377993539706e-08
8.388372069156786e-08
8.388367760223054e-08
8.388362197338424e-08
8.388357598696505e-08
8.388355363445733e-08
8.388353119584939e-08
8.38835122660047e-08
8.388350039150061e-08
8.388349732854141e-08
8.388412009920447e-08
8.417526335580895e-08
1.705628936784679e-07
1.835317045887092e-05
0.002303779096416363
1.324211809882333e-07
3.678915514260272e-06
2.42601411165805e-05
8.527910301569573e-05
0.0002165977028098189
0.0004503908823793695
0.000811180807495702
0.001300809601297355
0.001888905183125604
0.002520678400406988
0.003139062933908817
0.003704469580246767
0.004201394653127556
0.004631521080938913
0.004996957834289465
0.005302988136040838
0.005556677189511928
0.005765479428086568
0.00593641042736713
0.006075659492998419
0.006188474025510271
0.006279188744693734
0.006351318128220573
0.006407665549659695
0.006450428600412748
0.006481290715428974
0.006501502137663711
0.006511959671879261
0.006513263768131548
0.006505774429174072
0.006489654138401149
0.006464899859791328
0.006431368599784007
0.006388793831176058
0.006336800377968973
0.006274919915564268
0.006202594708485472
0.006119193391157849
0.006024011836502007
0.005916283552729084
0.005795205167054378
0.005659963439673973
0.005509749297564446
0.005343744108544416
0.005161075871641935
0.00496073779163988
0.004741432925996266
0.004501425668887352
0.004238448580237342
0.003950222154423463
0.003635492262557404
0.003295040496979216
0.002932812856861127
0.002561609671214978
0.0022000025393962
0.001854925454249929
0.001525960689011663
0.001215413817311013
0.0009292294673061527
0.0006753073315037144
0.0004614284812210662
0.0002931186832807375
0.000170997108734814
8.999877865536526e-05
4.164186165013131e-05
1.649522784000467e-05
5.612510205535474e-06
1.727756147245e-06
5.288902611425973e-07
1.901125970091993e-07
9.984499965553304e-08
7.694657385408e-08
7.140754148423574e-08
7.013216772795263e-08
6.985342758781856e-08
6.979552107656725e-08
6.978370164877185e-08
6.978083105685549e-08
6.977950999135143e-08
6.97783661517678e-08
6.977716474295235e-08
6.97758700160781e-08
6.977447899979971e-08
6.977299449336161e-08
6.977142112215774e-08
6.976976446695058e-08
6.976803306679822e-08
6.976623242264124e-08
6.976435547195095e-08
6.976244473637224e-08
6.976055755517415e-08
6.975866172478939e-08
6.97567433145352e-08
6.975480749479921e-08
6.975286439916469e-08
6.975094070004819e-08
6.974898737922183e-08
6.97473893955013e-08
6.974605909525969e-08
6.974493107024538e-08
6.974405570204054e-08
6.974349776550745e-08
6.974333364524668e-08
6.974714495874746e-08
7.120870433868963e-08
4.308414219757993e-07
6.003206633668547e-05
0.005178748068095807
8.996432507091197e-08
2.499396909595321e-06
1.648395557649895e-05
5.79863473360246e-05
0.0001476446393765924
0.0003089013884918472
0.0005629702288615796
0.0009196794223544329
0.00136844956475225
0.001877363777500076
0.00240358416187963
0.002908506324172196
0.003367998519633485
0.003774090593168652
0.004127796491831467
0.00443094360511566
0.004687600457514232
0.004903082323850607
0.005083055568798491
0.005232965079267344
0.005357741945866251
0.005461706657509188
0.005548568722144105
0.005621447502932734
0.00568283819423437
0.00573458645412913
0.005777893690628657
0.005813370195234447
0.005841487023676601
0.00586259991718929
0.005876967304435991
0.005884760226669827
0.005886069735331867
0.005880912410446717
0.005869234437688562
0.00585091460927387
0.005825766533492767
0.005793540386417223
0.005753924406217661
0.005706546492987824
0.005650976355694939
0.005586728752520238
0.005513268678870762
0.005430019445887689
0.005336210937085497
0.005230686681814756
0.005111932048015916
0.004978106372378049
0.004827094351377319
0.004656504116341593
0.004463613043432086
0.00424528565004866
0.003998000599788587
0.00371832186705022
0.003404174319613571
0.003056029517406997
0.002678032021223324
0.002286048717838382
0.00190347012821903
0.001535852002858191
0.001184804585592801
0.0008610502162573015
0.0005799948595583618
0.0003550976577981336
0.0001931859564457963
9.102419017680588e-05
3.586451976027094e-05
1.142397219381731e-05
3.017887604241653e-06
7.387078716926907e-07
2.050199450092492e-07
8.963378390403422e-08
6.600358355050509e-08
6.137413642961865e-08
6.050183881525658e-08
6.034297513727231e-08
6.031443281563018e-08
6.030868921009499e-08
6.030668098870928e-08
6.03051756041285e-08
6.030365255904777e-08
6.030203281814317e-08
6.030030558097083e-08
6.029847060089702e-08
6.029653009455203e-08
6.029448702199842e-08
6.029234733324621e-08
6.029011598940291e-08
6.028778484927389e-08
6.028541742215625e-08
6.028308352990804e-08
6.028070469556609e-08
6.027826836503451e-08
6.027579002299039e-08
6.027326612473089e-08
6.027072983897443e-08
6.02681593611829e-08
6.026591671161468e-08
6.026396251758833e-08
6.026226940588522e-08
6.026092658733414e-08
6.026001823050718e-08
6.025966971405921e-08
6.026921574909171e-08
6.416016801675439e-08
1.050773061651448e-06
0.0001565413390651058
0.01067371674381156
6.401967741689185e-08
1.778606564721107e-06
1.173108207082714e-05
4.128530145855207e-05
0.0001052829427143231
0.0002211336685776456
0.0004061758272080107
0.0006721592482477946
0.001018414004817707
0.001428297001828521
0.001872731662246004
0.002319456557765079
0.002742312659161405
0.003126174889239969
0.003466862024708213
0.003764853311094142
0.004021691156322115
0.004240619102362046
0.004425835576352433
0.004581847456172196
0.004713064490341781
0.004823582071373898
0.004917082332976228
0.004996765691238222
0.005065209988568574
0.005124408287725701
0.005175427058597731
0.005219039445837479
0.005255865259586881
0.005286395831328229
0.005311020679394057
0.005330041125431783
0.005343680015102532
0.005352088909430426
0.005355353211418327
0.005353495550169456
0.005346477638791497
0.005334200732848298
0.005316504735468284
0.005293165920280269
0.005263893167103213
0.00522832251097838
0.005186009657965596
0.005136419875770895
0.005078914280470189
0.005012732084323958
0.004936970362700704
0.004850562490316147
0.004752284208271855
0.004640740399816761
0.004514345644902294
0.004371351601918223
0.004209572575115321
0.004025769244015445
0.003815926598909888
0.003575624111367892
0.003300771468470811
0.002989027342988543
0.002641798802108382
0.002266111909877185
0.001881504498165922
0.001503865426729085
0.001138162702982599
0.0007978712140495845
0.0005050424041645983
0.0002801410717156372
0.00013162420312757
5.038308127504041e-05
1.500432482632131e-05
3.507118411196618e-06
7.314181049781964e-07
1.757820813807134e-07
7.440170862746539e-08
5.695275207202159e-08
5.408317472676894e-08
5.362786286104387e-08
5.355696728802602e-08
5.354524277433614e-08
5.354227557129407e-08
5.35404787780696e-08
5.353874506317096e-08
5.353691838434322e-08
5.353497792478043e-08
5.353292191841142e-08
5.35307522513665e-08
5.352847169203972e-08
5.352608576289674e-08
5.352360053656298e-08
5.352101036827992e-08
5.351836716473449e-08
5.351573161822391e-08
5.351304478551079e-08
5.351029724143624e-08
5.350750522640184e-08
5.350467515315892e-08
5.350184383773473e-08
5.349899900995578e-08
5.349644670928275e-08
5.349419798745209e-08
5.349225888846371e-08
5.349072550998463e-08
5.348970009924135e-08
5.348933752885909e-08
5.351187991610105e-08
6.527288454818758e-08
4.018559561906413e-06
0.0005990794415180544
0.02790451420576788
5.00780361408392e-08
1.391280123324715e-06
9.176804592096734e-06
3.230432382361749e-05
8.245355494589747e-05
0.0001735746633984588
0.0003202853099102729
0.0005341492517175765
0.0008184200717226683
0.001164129960824784
0.001550799578705436
0.001952135317908241
0.002343532526037776
0.002707438518520769
0.003035228676322285
0.003326086460182061
0.003580191665127918
0.003799269807634434
0.003986365308525762
0.004145181279024908
0.004279599551797888
0.004393393578937726
0.00449007399853859
0.004572783998406815
0.004644132910582682
0.004706200441390578
0.004760140960681271
0.004806810494392389
0.004846905507531164
0.004880986475793194
0.004909509528984366
0.004932842667413301
0.004951276853528089
0.004965034394825947
0.004974275164685907
0.004979101032707772
0.004979558767523406
0.004975641588139607
0.004967289465448042
0.004954388215141031
0.004936767373159805
0.004914196793213902
0.004886381843913463
0.004852957005092879
0.004813477597424528
0.004767409346364469
0.004714115473920427
0.00465284096336132
0.004582693464103746
0.004502619065139981
0.004411370914400353
0.004307466623035815
0.00418912893534094
0.004054292395399326
0.003900544820362177
0.003725243869107112
0.003524989158107958
0.003295050026401227
0.003030663966502985
0.002728889322483627
0.00239099977137291
0.002024995537718103
0.001649532593234443
0.001274641663140893
0.0009110460861194274
0.0005834779874118343
0.0003217599820505092
0.0001461805576821921
5.221480458913032e-05
1.390718834398638e-05
2.81418773478961e-06
5.132644092813374e-07
1.203860697493549e-07
5.902728190776587e-08
4.996619675787193e-08
4.868466004289074e-08
4.850855627613637e-08
4.848388849718817e-08
4.847931889236588e-08
4.847726890535722e-08
4.847543586013072e-08
4.847352373527982e-08
4.847149526337439e-08
4.846934631984042e-08
4.846707807094422e-08
4.846469281811366e-08
4.846219526811362e-08
4.845959151529371e-08
4.845687726674667e-08
4.845409615330261e-08
4.845130167465632e-08
4.844844800888943e-08
4.84455284987535e-08
4.844256096227742e-08
4.843956825094515e-08
4.843658285416829e-08
4.843359615103858e-08
4.843087501442724e-08
4.842846355938146e-08
4.842638950810667e-08
4.84247566361066e-08
4.842368015022103e-08
4.84233329921743e-08
4.847644554503734e-08
1.131727426258519e-07
3.847584959301363e-05
0.003085812673569525
0.07224389124716805
3.91811446861671e-08
1.088541785706989e-06
7.180207448339709e-06
2.528110289419248e-05
6.457374827112447e-05
0.0001361848227718219
0.0002522434088798219
0.0004234277331566249
0.0006550813805428689
0.0009435955054971615
0.001275567574845489
0.001630825195849007
0.001987849808217706
0.002328826375826455
0.002642393390025476
0.002923987686852392
0.003173538126100421
0.003391467723889491
0.003579594814472379
0.003740725791359569
0.003878128774914828
0.003995184853524396
0.004095170737057533
0.004181086287206722
0.004255483363355511
0.004320432577471708
0.004377078379956353
0.004426362791245745
0.00446905599527446
0.004505785037327882
0.00453706493130802
0.004563319903167709
0.004584896101863798
0.004602071273314851
0.004615062115211534
0.004624029749804144
0.004629083633364515
0.004630284125848547
0.004627643866358793
0.00462112803700232
0.004610653544614229
0.004596087097559527
0.004577242091866848
0.004553874141292664
0.004525675011101842
0.004492264652055643
0.004453180952083077
0.0044078666850838
0.00435565292948111
0.004295737991989716
0.004227160633150257
0.004148766178076526
0.004059164195974021
0.003956676583295034
0.003839303164460405
0.003704647439151984
0.003549920355735516
0.003372093588307019
0.003168469852239137
0.002934291177922425
0.00266488264579839
0.002358595762228621
0.002020622190423736
0.001661868771890289
0.001291835096337603
0.0009245729029828729
0.0005854572578755947
0.0003117098748734512
0.0001319177402576722
4.189195700049601e-05
9.477160191123263e-06
1.625812593688931e-06
2.723655156598532e-07
7.513057011450624e-08
4.846270292117442e-08
4.503326791364996e-08
4.460825335838362e-08
4.455594163596806e-08
4.454837968390017e-08
4.454598890883504e-08
4.454409288350285e-08
4.454214573110845e-08
4.454008408503501e-08
4.45379008302666e-08
4.453559649125445e-08
4.453317306402333e-08
4.45306346635082e-08
4.452798720016573e-08
4.45252272564053e-08
4.452239249750574e-08
4.451953079494276e-08
4.451660527845676e-08
4.451361108633683e-08
4.451056677890622e-08
4.450749734797246e-08
4.450443498129362e-08
4.450137579753941e-08
4.44985563184962e-08
4.449604060260362e-08
4.449386914574821e-08
4.449215302217079e-08
4.449101010299193e-08
4.449065051673373e-08
4.495587553063442e-08
1.33585428365753e-06
0.0004015196233353526
0.0121837237603299
0.142857399276916
3.200245392101022e-08
8.891023612106554e-07
5.864815783568016e-06
2.065270909117116e-05
5.277836822339013e-05
0.0001114521395510449
0.0002069863352985607
0.0003490893051534321
0.0005439105243171264
0.0007908705121600539
0.001081183875712319
0.001399330969495067
0.001726908399704159
0.002046963587824781
0.002347003897765161
0.002620114050034146
0.002864597179885982
0.003080369208593301
0.003268290648420432
0.003430318291193452
0.0035691192757189
0.0036876937149443
0.003789121061386326
0.00387634962278501
0.003951937056219884
0.004018017393688402
0.004075771236235082
0.004126173309666173
0.004170021109583466
0.004207967121914957
0.004240548695810897
0.004268213372947979
0.004291332398024773
0.004310210935352002
0.004325095883496995
0.004336181783703513
0.004343615183392235
0.004347497709122959
0.004347888020094351
0.004344802748042905
0.004338216473862072
0.00432806074005805
0.00431422203750532
0.004296538630056046
0.004274796015116055
0.004248720770939746
0.004217972480713337
0.004182133300470046
0.004140694552674366
0.004093039539050715
0.004038421579102246
0.003975936080961401
0.003904485308217543
0.003822734606300158
0.003729059808792603
0.003621486108506114
0.003497667744052849
0.003354878409544858
0.003190176443560449
0.0030006345167751
0.00278300407488744
0.002532757868996499
0.002247776307678514
0.001931644063112082
0.001588262793963014
0.001226895466044275
0.0008636639052050373
0.0005270222198657279
0.0002613187820419879
9.832163657035353e-05
2.622064132684639e-05
4.816909968301031e-06
7.090375737487375e-07
1.247648088036884e-07
5.12319700233411e-08
4.251768111887271e-08
4.152854234587627e-08
4.141877200890123e-08
4.140556889511049e-08
4.140263258302749e-08
4.140067864177545e-08
4.139871980381198e-08
4.139665098483057e-08
4.139446094833629e-08
4.139214955250699e-08
4.138971855435103e-08
4.138717163224157e-08
4.138451445040297e-08
4.138174417401534e-08
4.137889399115355e-08
4.13760072805222e-08
4.137305351058405e-08
4.137002896035504e-08
4.136695208673158e-08
4.136384720450544e-08
4.13607462390063e-08
4.135764831999164e-08
4.135476548226276e-08
4.1352173948521e-08
4.13499214571006e-08
4.134811627267729e-08
4.134688454188531e-08
4.136330281877966e-08
1.244913627110905e-07
6.877230896395212e-05
0.00373390432185117
0.04063951128591117
0.2584170668851341
2.637863438147846e-08
7.328602935581925e-07
4.834288420369673e-06
1.702578574355258e-05
4.35275976959661e-05
9.201417782755242e-05
0.000171263555471971
0.0002899722703175445
0.0004545189309114892
0.0006662769625619535
0.000919887066109102
0.001203709568082452
0.00150242216549801
0.001800539604902401
0.002085376622405329
0.002348588348987997
0.002586363945076372
0.002798439327506651
0.002984899595507262
0.003146970861746297
0.003286742718333544
0.0034067962808928
0.003509927745210255
0.003598899142333309
0.003676189340562653
0.003743833088315352
0.003803055534733348
0.003854872278130187
0.003900116023789298
0.003939468485433027
0.003973490749013704
0.004002652888957058
0.0040273485112444
0.004047905671117498
0.004064595224162779
0.004077637171726448
0.004087205412833962
0.004093431197215426
0.004096405483582761
0.004096180337014211
0.004092769440823322
0.004086147745859638
0.004076250218752284
0.004062969577498525
0.00404615284869722
0.004025596553319063
0.004001040285017925
0.003972158331659485
0.00393854881286041
0.003899719634419271
0.003855070391384203
0.003803869146893834
0.003745222813960433
0.003678039810862768
0.003600984160329086
0.003512422479889507
0.003410372563373892
0.003292472893565788
0.003156053822224246
0.002998241995207207
0.002816070718757183
0.002606551111024826
0.002366936308493286
0.002095393759899764
0.001791645730155165
0.001458300004207668
0.001104851938182442
0.0007494512609302321
0.0004267904862930191
0.0001881427297980988
5.929254955716304e-05
1.247012643748337e-05
1.829260257600676e-06
2.509066268375398e-07
6.210397360465774e-08
4.126908749311865e-08
3.907850155455132e-08
3.885537181117112e-08
3.883190736738471e-08
3.882807411273022e-08
3.882604799820358e-08
3.882408908828062e-08
3.88220271597887e-08
3.881984522327606e-08
3.881754239828446e-08
3.881512021340746e-08
3.881258199102603e-08
3.880993312775713e-08
3.880717115988327e-08
3.880432578235282e-08
3.880143670967718e-08
3.879847802252042e-08
3.879544673339491e-08
3.879236083126258e-08
3.878924368809174e-08
3.87861264475805e-08
3.878300968531573e-08
3.878008523036641e-08
3.87774363445918e-08
3.877511432039189e-08
3.877322004658361e-08
3.878384923263745e-08
5.563113778106444e-08
1.197848319406135e-05
0.001195659438500205
0.01740700558731978
0.09138312371717243
0.3718697286368153
2.207364879723021e-08
6.132581617006051e-07
4.045403117023409e-06
1.42488016378929e-05
3.64400885966432e-05
7.70969440470136e-05
0.0001437539945174558
0.0002441712038192394
0.000384628775939761
0.0005676778713305611
0.0007903787608844487
0.00104412757596329
0.001316335349549406
0.001593207015292623
0.001862456868879977
0.002115069136905238
0.002345889930765746
0.002553435683661109
0.00273755477755872
0.00289888218052338
0.003038953938284784
0.003159918024431782
0.003264254040291779
0.003354509953253757
0.003433066912367866
0.003501864514706266
0.003562158221704015
0.003614994149497419
0.003661230570679053
0.003701569958956136
0.003736590001691943
0.003766776667981833
0.003792539800121681
0.003814224608431656
0.003832120435019932
0.003846467405611193
0.003857461425053832
0.003865257847249295
0.003869974053800493
0.003871691098835943
0.003870454516366559
0.003866274332539208
0.003859124261829539
0.003848939993787548
0.003835616433121579
0.003819003745664631
0.00379890203455318
0.003775054369450432
0.003747137724104115
0.00371475122338487
0.003677400963538258
0.003634480498897369
0.003585245913983499
0.003528784331857759
0.003463975058594013
0.00338944415431771
0.003303517817670052
0.003204189680429155
0.003089129643437887
0.002955753526188164
0.002801332282345971
0.002623070459914899
0.002418134944915856
0.002183764613018065
0.001917703323074721
0.001619176358443956
0.001291606606025772
0.000945027373161336
0.0006012694689405149
0.0003058499146008367
0.0001129459899000914
2.7768846476912e-05
4.400030160463142e-06
5.425568460550448e-07
8.887694932188206e-08
4.17836629564339e-08
3.716052181842062e-08
3.672332501782842e-08
3.668183171587524e-08
3.667654112217716e-08
3.667441161107944e-08
3.667245865665976e-08
3.66704125618583e-08
3.66682483732318e-08
3.666596437954879e-08
3.666356191231503e-08
3.666104403657395e-08
3.665841593543557e-08
3.665567543499836e-08
3.665284951131668e-08
3.66499749344229e-08
3.66470293492738e-08
3.664401041332239e-08
3.664093569412917e-08
3.66378278374245e-08
3.663471740106658e-08
3.663160631938259e-08
3.6628670168548e-08
3.66259976773264e-08
3.662364622823291e-08
3.662657176929754e-08
4.130925949311416e-08
2.718570640466564e-06
0.0004380661886628077
0.008691013920023997
0.05103444324350479
0.1627749458104171
0.4904992277802158
1.869509408006983e-08
5.193942415351406e-07
3.42626906552193e-06
1.206903445269986e-05
3.087389822427853e-05
6.53658786151047e-05
0.0001220593120500586
0.0002078720372865051
0.0003288187588557495
0.0004881423794353269
0.000684628566983606
0.0009120558617676318
0.001160200921902062
0.001416978969828672
0.00167082863110522
0.001912526939459398
0.002136039147665516
0.002338534088940956
0.002519716887311329
0.002679675631192498
0.002819422706510621
0.00294071594197641
0.00304573943559231
0.003136837471816448
0.003216289094381067
0.003285923358819435
0.003347005768499942
0.003400599554163935
0.00344757909661316
0.003488655271866052
0.003524412219668643
0.003555342478194731
0.003581863512674012
0.003604329660184375
0.003623041200371966
0.003638251226568997
0.003650170815568829
0.003658972866085532
0.003664794873182266
0.003667740826399777
0.003667882358490044
0.003665259066583498
0.00365987780345747
0.003651711168875917
0.003640695269129471
0.003626726415777125
0.003609656636331951
0.003589287776021153
0.003565363811288569
0.003537560863057473
0.003505474293944821
0.00346860214217619
0.003426324009269891
0.003377874466632892
0.003322310310223031
0.003258472113408794
0.003184943490226223
0.003100017267520926
0.003001684662365783
0.002887662673528284
0.002755454007853298
0.002602388640396729
0.002425623259215272
0.002222148428678567
0.00198899119299255
0.001723815048358882
0.001426184815555695
0.001101029798958147
0.000760989967143252
0.0004366942531353308
0.0001869188890800173
5.373009823780477e-05
9.625078252849039e-06
1.171307843227464e-06
1.46586833644978e-07
4.512206886382985e-08
3.575647325422232e-08
3.492756284822389e-08
3.48551610841172e-08
3.48475333601236e-08
3.484524761563271e-08
3.484330221091283e-08
3.48412772720049e-08
3.483913671888254e-08
3.483687793346619e-08
3.483450211177712e-08
3.483201216677365e-08
3.482941315828764e-08
3.48267031983729e-08
3.482390716309391e-08
3.482105949492659e-08
3.481814077179872e-08
3.481514936657506e-08
3.481210265450585e-08
3.48090228955378e-08
3.480594047287481e-08
3.480285860760049e-08
3.47999421170066e-08
3.479728338223267e-08
3.479511608560532e-08
3.504639687155057e-08
2.356951096578095e-07
7.759414569429913e-05
0.003059008006154683
0.02474689756663742
0.088626243907686
0.216039149694734
0.535456859730509
1.620034842727078e-08
4.500844851558476e-07
2.969087756077156e-06
1.045926792008609e-05
2.676162654878051e-05
5.669019082193426e-05
0.0001059805234953686
0.0001808658013482141
0.0002870493482210844
0.000428131638793433
0.0006040373756447057
0.00081025848401071
0.001038403224019826
0.001277851960438348
0.001517835049342249
0.001749207425607005
0.001965463703211953
0.002162961577443342
0.002340753397345994
0.0024987084278421
0.002637456668293486
0.002758420613848692
0.002863510036703177
0.002954873670734989
0.003034683807158556
0.00310468849955189
0.003166140476602749
0.00322010938547699
0.003267481242121774
0.003308963731045864
0.003345136198210131
0.003376487494727593
0.003403433571950453
0.003426329674680078
0.003445479560406708
0.003461142444252329
0.00347353818762931
0.003482851116283416
0.003489232742882217
0.003492803579043795
0.003493654146483683
0.003491845402488597
0.003487408793387529
0.003480345509579735
0.00347062463712509
0.003458180369631813
0.003442908185995523
0.003424659808001949
0.003403236601052629
0.003378380972760313
0.003349765247773241
0.003316977395065918
0.003279502880778327
0.003236701888271135
0.003187781363932574
0.003131762161652949
0.003067443491891754
0.002993370269786317
0.002907812638126355
0.00280876596425279
0.002693969653822564
0.002560919624660421
0.0024068523536986
0.002228729245337228
0.002023324338220626
0.001787582529327206
0.00151943834253362
0.001219472319344706
0.0008949358005532292
0.0005650169761485124
0.0002759890771954448
9.221974483510416e-05
1.904050665458241e-05
2.44119864537982e-06
2.635509308749214e-07
5.332609483657866e-08
3.493886155980219e-08
3.340575375695097e-08
3.328097655587972e-08
3.32696196383453e-08
3.326709436783402e-08
3.326515417141027e-08
3.326315300081404e-08
3.326103934997358e-08
3.325880932848369e-08
3.325646396516955e-08
3.32540060698377e-08
3.325144062313313e-08
3.324876598687105e-08
3.324600534034473e-08
3.324319120579393e-08
3.324030655518807e-08
3.323735039266551e-08
3.323433990379385e-08
3.323129711403363e-08
3.322825208861588e-08
3.322520877936847e-08
3.322232252912177e-08
3.321969024094457e-08
3.322698929989338e-08
4.494786103731539e-08
8.22716659040778e-06
0.0008288986342331827
0.01104724459951846
0.04889207083278641
0.1296508849019892
0.2688048501991531
0.6007778400525251
1.418506744811492e-08
3.940953117452065e-07
2.599765374419324e-06
9.158728179291516e-06
2.343816202648349e-05
4.967252168791433e-05
9.295068246635872e-05
0.0001589087419955352
0.0002529159069272124
0.0003787480541256889
0.0005371447330979963
0.000724938896999097
0.0009352725213136222
0.001158855513761484
0.001385752484307047
0.001607064164860647
0.001816039532247007
0.002008481299081139
0.00218266086371952
0.002338344708085294
0.002475835020102083
0.002596243502633535
0.002701239417817528
0.002792767577680614
0.00287288757384563
0.002943231958337966
0.003005022295719486
0.003059336974040283
0.003107089176881985
0.003148980721691465
0.003185585096340952
0.003217385439105356
0.003244793275420747
0.003268160962440141
0.003287791125712522
0.003303943753593901
0.003316841498033718
0.003326673603361586
0.00333359877297948
0.00333774719455308
0.003339221875015714
0.003338099375926228
0.0033344299699495
0.003328237165640719
0.003319516109838664
0.003308230928560506
0.003294311460058909
0.003277649014405698
0.003258090747114654
0.00323543225365074
0.003209407941516576
0.003179678652428377
0.003145815927052973
0.003107282294761181
0.003063407150298511
0.003013358354236129
0.002956110921308299
0.00289041608846324
0.002814775870228351
0.002727427636029284
0.002626337775685573
0.002509191861421626
0.002373369646242513
0.0022159153405881
0.002033569699973329
0.001822974635141529
0.001581180283751532
0.001306700666078914
0.001002748715110886
0.0006805649247186119
0.0003718346705880913
0.0001429032360618358
3.415202643837088e-05
4.813562632148475e-06
4.895665826463822e-07
7.001196876913917e-08
3.489673622125958e-08
3.212046238817508e-08
3.190799331398505e-08
3.189072546496988e-08
3.188783387638172e-08
3.188589316638385e-08
3.188391684252229e-08
3.188183129870075e-08
3.187963129122167e-08
3.187731773930168e-08
3.187489337574267e-08
3.187236312300393e-08
3.186972554593119e-08
3.186700240372372e-08
3.186422458832823e-08
3.186137702648812e-08
3.18584592396823e-08
3.185548817882164e-08
3.185248541911101e-08
3.184948073429206e-08
3.184647902080541e-08
3.184362713110531e-08
3.184129278669636e-08
3.241845996326184e-08
6.095148826889746e-07
0.0001663762018403808
0.004283645021345877
0.02650207163922718
0.07957342037029282
0.1727863839306051
0.3208439850774407
0.6648655014826982
1.261654726143692e-08
3.505181633217433e-07
2.312313060676765e-06
8.146411296916153e-06
2.085056153772071e-05
4.420497709261527e-05
8.278443150897662e-05
0.0001417327504466316
0.0002261056755064559
0.0003397384020829569
0.0004839258273421475
0.0006564985754343523
0.0008518050748085619
0.001061664910166905
0.001276909464169221
0.001488957183229768
0.001690968244940668
0.001878371343755488
0.002048830132645454
0.002201998763104579
0.002337902019180189
0.00245737630722593
0.002561892956951313
0.002653212694664767
0.002733280875971135
0.002803637700454195
0.002865467928987961
0.002919837325444348
0.002967684519672611
0.003009721672043662
0.003046512997961544
0.00307853231555278
0.00310618373066703
0.0031298144951581
0.003149724589616081
0.00316617391460193
0.00317938766798729
0.003189560366132463
0.003196858274558847
0.003201420767972593
0.003203361515958545
0.003202769184434835
0.003199707519889457
0.003194214734247512
0.003186302550475376
0.003175954743719232
0.00316312458175697
0.003147731240012788
0.003129655002879627
0.00310873089651419
0.003084740362964408
0.003057400516752511
0.003026350464895251
0.002991134168067955
0.002951179452733444
0.00290577316675623
0.002854033208938356
0.002794879213093828
0.002727004580438998
0.00264885209451457
0.002558592838196531
0.002454102711578706
0.002332931265054722
0.002192265821911646
0.002028934246192279
0.001839515872834133
0.001620678416242461
0.001369916686907087
0.00108726457015249
0.0007791958205152201
0.0004663320343722046
0.0002035079794504951