/*--------------------------------*- C++ -*----------------------------------*\
| =========                 |                                                 |
| \\      /  F ield         | OpenFOAM: The Open Source CFD Toolbox           |
|  \\    /   O peration     | Version:  v1812                                 |
|   \\  /    A nd           | Web:      www.OpenFOAM.com                      |
|    \\/     M anipulation  |                                                 |
\*---------------------------------------------------------------------------*/
FoamFile
{
    version     2.0;
    format      ascii;
    class       volScalarField;
    location    "0.00000106";
    object      nut;
}
// * * * * * * * * * * * * * * * * * * * * * * * * * * * * * * * * * * * * * //

dimensions      [0 2 -1 0 0 0 0];


internalField   nonuniform List<scalar> 
44064
(
2.293361185249394e-13
3.471529417610715e-11
6.524804023268889e-10
4.680020662270398e-09
1.976291026841588e-08
5.946694633897472e-08
1.414461317131737e-07
2.840137832435975e-07
5.02235260598746e-07
8.033079328886166e-07
1.129060820436477e-06
1.511033474715318e-06
1.956913060363385e-06
2.468125775878117e-06
3.043973150044201e-06
3.682534764530237e-06
4.381065486242593e-06
5.136282786712544e-06
5.944611411605694e-06
6.802406972344523e-06
7.706163172408332e-06
8.652686780278309e-06
9.639217771705378e-06
1.066347916100282e-05
1.172365379865989e-05
1.281829194817746e-05
1.394615556969322e-05
1.510602325002328e-05
1.629646719923523e-05
1.751560063640138e-05
1.876080198103317e-05
2.002843273279629e-05
2.131355663487674e-05
2.260971357054286e-05
2.390893175901827e-05
2.520239987240139e-05
2.648252082232053e-05
2.774728027311039e-05
2.900707281532551e-05
3.029085622033734e-05
3.164159502235816e-05
3.307795395199407e-05
3.448362156470926e-05
3.539698136470454e-05
3.585088052493238e-05
3.61300311873749e-05
3.618699635485304e-05
3.591860485918426e-05
3.523065691257014e-05
3.40912061353105e-05
3.251720797091475e-05
3.055841045186499e-05
2.82838316317175e-05
2.576614934873889e-05
2.307106016729664e-05
2.02559838920137e-05
1.737416768707285e-05
1.447919947370486e-05
1.162918980347731e-05
8.893358779324607e-06
6.363166452453452e-06
4.161856976889176e-06
2.429557010911742e-06
1.250766354393259e-06
5.742633525010392e-07
2.424962099480091e-07
9.856100106578259e-08
4.164828899950928e-08
2.080185171923303e-08
1.368487713275865e-08
1.141888494510725e-08
1.074700829071115e-08
1.056189024628233e-08
1.051461140936234e-08
1.050344798423391e-08
1.05010167101477e-08
1.050052825796919e-08
1.050043659089916e-08
1.050041898896145e-08
1.050041388298283e-08
1.050041058369063e-08
1.050040741714283e-08
1.050040416063663e-08
1.050040080544528e-08
1.050039737275114e-08
1.050039388426372e-08
1.050039041058445e-08
1.050038679880645e-08
1.050038319677458e-08
1.050038014907998e-08
1.050037702761746e-08
1.050037375200057e-08
1.050037081573475e-08
1.050036801017634e-08
1.050036530588849e-08
1.05003633382607e-08
1.050036079984215e-08
1.050035870065632e-08
1.050035767983056e-08
1.050035665578278e-08
1.050035579182025e-08
1.050035524983712e-08
1.050035515025456e-08
1.050043247983909e-08
1.053687224391771e-08
2.134820611285079e-08
2.233411368702465e-06
6.369639115070572e-05
1.159371275780446e-13
1.756369359667556e-11
3.313761769962084e-10
2.405316495386093e-09
1.040238149354966e-08
3.238914005596138e-08
8.003860008408095e-08
1.667666687435047e-07
3.055904393168087e-07
5.07273570600039e-07
7.784053824835038e-07
1.116843686264691e-06
1.485699661806504e-06
1.913630037510211e-06
2.408877461717878e-06
2.975022299368723e-06
3.613894264787229e-06
4.326268223300125e-06
5.112160918007146e-06
5.971082425376893e-06
6.902309321528766e-06
7.905175154888081e-06
8.979339339057133e-06
1.012497567156855e-05
1.1342824686041e-05
1.263407980299418e-05
1.400014800532791e-05
1.544236575278441e-05
1.696165923597377e-05
1.855822363119636e-05
2.023122904904557e-05
2.197856591814386e-05
2.379665398022815e-05
2.568031830851496e-05
2.762277371065623e-05
2.96157135682483e-05
3.164938335214951e-05
3.371262789222861e-05
3.579259243240924e-05
3.787398674768842e-05
3.993773290964189e-05
4.19586227054356e-05
4.390177254442619e-05
4.571815446661232e-05
4.733949677775988e-05
4.867357043314034e-05
4.960721460647854e-05
5.003630157502225e-05
4.99487361787984e-05
4.946246845584364e-05
4.872646178069235e-05
4.788327373877191e-05
4.7119339204761e-05
4.66162764014349e-05
4.616877877263881e-05
4.392295447591606e-05
4.014695346667685e-05
3.589350974865487e-05
3.129029168277194e-05
2.646319805405927e-05
2.155508571627582e-05
1.673590641938069e-05
1.218147034166778e-05
8.065416571434421e-06
4.618009688151732e-06
2.147772150580619e-06
7.963544276018929e-07
2.532807759430158e-07
7.827149547061559e-08
2.820188080563978e-08
1.481935479986694e-08
1.142213905572536e-08
1.060025125014834e-08
1.041104131212405e-08
1.036975028738183e-08
1.036124822636027e-08
1.035959965667629e-08
1.035929276645769e-08
1.035922959811653e-08
1.035920654510452e-08
1.035918870667663e-08
1.035917061388882e-08
1.035915152955207e-08
1.03591314243059e-08
1.035911037818736e-08
1.035908847832891e-08
1.035906591731667e-08
1.03590426748255e-08
1.035901789843298e-08
1.035899242766894e-08
1.035896854592433e-08
1.035894583552689e-08
1.035892328009207e-08
1.035890065474548e-08
1.035887791683144e-08
1.035885612116383e-08
1.035883363631844e-08
1.035881484105239e-08
1.035879952393903e-08
1.035878627525306e-08
1.035877601084501e-08
1.035876942719538e-08
1.035876760348559e-08
1.035928749478146e-08
1.05762057761571e-08
6.395577059933672e-08
8.147101687701411e-06
0.0001219198195961249
7.876577592604148e-14
1.193425271513379e-11
2.254142466507797e-10
1.642539877805448e-09
7.165322768329284e-09
2.262808242845895e-08
5.694468687283182e-08
1.209999573602514e-07
2.26027377973153e-07
3.82274490240936e-07
5.977637830114144e-07
8.769803682305343e-07
1.211154436052586e-06
1.581041615247644e-06
2.00948408067099e-06
2.50419459799223e-06
3.069327274486782e-06
3.707743996351865e-06
4.421692520157961e-06
5.213171862201439e-06
6.084097174115261e-06
7.035914621800219e-06
8.067752860275717e-06
9.171378365134694e-06
1.03201991541356e-05
1.150374853971467e-05
1.277443368223422e-05
1.41399517428989e-05
1.560706022923422e-05
1.718151206691567e-05
1.886864985714821e-05
2.067325709415454e-05
2.259934855990632e-05
2.464991290838767e-05
2.682659822743496e-05
2.912932655610079e-05
3.155580331157122e-05
3.410090890521732e-05
3.675591036786507e-05
3.950749609265301e-05
4.23366623459587e-05
4.521747125800964e-05
4.811570554538252e-05
5.098717655740743e-05
5.369259503378846e-05
5.609817287952042e-05
5.820165745800301e-05
5.996936848653084e-05
6.133754928015361e-05
6.221621492642877e-05
6.249695966202592e-05
6.207654167910139e-05
6.09209614772117e-05
5.917128264850783e-05
5.700781190227055e-05
5.454999501732579e-05
5.205076355049494e-05
4.996544907910547e-05
4.813456472122709e-05
4.379576584977862e-05
3.821329626472704e-05
3.217075306772567e-05
2.590157030169149e-05
1.968708176791571e-05
1.384086009530047e-05
8.665937438876428e-06
4.481708253519789e-06
1.730970772318193e-06
4.97686563357743e-07
1.247261901617423e-07
3.479108259392708e-08
1.522510568469703e-08
1.121331290028375e-08
1.042723182574679e-08
1.027921242930131e-08
1.025238076291713e-08
1.024770007962425e-08
1.024690780277139e-08
1.024676642071841e-08
1.024672717817068e-08
1.024670189981899e-08
1.024667729983209e-08
1.024665154786782e-08
1.024662445470228e-08
1.024659606733178e-08
1.024656643804245e-08
1.024653574364696e-08
1.024650402950077e-08
1.024647035684576e-08
1.024643573311268e-08
1.024640278477928e-08
1.024637060793417e-08
1.024633807550689e-08
1.024630537276213e-08
1.024627214051453e-08
1.024623925040311e-08
1.024620565098663e-08
1.02461758335681e-08
1.024614994100327e-08
1.024612727991007e-08
1.024610946682862e-08
1.024609749817296e-08
1.024609385222451e-08
1.024766139877929e-08
1.090897729444469e-08
1.78407519172549e-07
2.199519596464126e-05
0.0002460307808925448
5.605083120916696e-14
8.493365529826589e-12
1.60534411951116e-10
1.172675745085749e-09
5.144680620421246e-09
1.640323006294338e-08
4.180991918671625e-08
9.010076022147296e-08
1.70629850521782e-07
2.923305799380338e-07
4.630382304917091e-07
6.887288875572135e-07
9.726733161396804e-07
1.302226439759385e-06
1.671890422123285e-06
2.099170393007383e-06
2.590861885919018e-06
3.151154084195512e-06
3.783356774959347e-06
4.490447762761243e-06
5.275192041733638e-06
6.139379275273978e-06
7.080753820271283e-06
8.084796417424945e-06
9.106768655110218e-06
1.019398342295776e-05
1.136384173377706e-05
1.26244464878803e-05
1.398385031550049e-05
1.544884144947777e-05
1.702596784271863e-05
1.872152826280491e-05
2.054142045696621e-05
2.249094695874749e-05
2.457457225187332e-05
2.679562209740054e-05
2.91559157330034e-05
3.165532258161499e-05
3.429123688992632e-05
3.705796807503477e-05
3.994605166426462e-05
4.29414894165563e-05
4.602491375881735e-05
4.917063718833037e-05
5.234551886091436e-05
5.550735909490764e-05
5.860313257751082e-05
6.156752557404075e-05
6.433795330119528e-05
6.684128083603624e-05
6.897882763461959e-05
7.063885643908152e-05
7.154018904375425e-05
7.129199320060553e-05
6.998684884408347e-05
6.769708605706673e-05
6.454692203245748e-05
6.083184811770235e-05
5.706323705485271e-05
5.370207203923874e-05
5.078791934174848e-05
4.626096593939585e-05
3.967840566701901e-05
3.249235705098941e-05
2.506870104160601e-05
1.788446483804638e-05
1.143026847732297e-05
6.110631112211783e-06
2.392028062988511e-06
6.374386814585382e-07
1.376389082912553e-07
3.329378513605219e-08
1.410682186841055e-08
1.080027639754754e-08
1.025650318462932e-08
1.017038476573498e-08
1.015716086892141e-08
1.015517389974203e-08
1.015486664948547e-08
1.015480108355693e-08
1.015476759178519e-08
1.0154736816567e-08
1.015470488131415e-08
1.015467134788067e-08
1.015463624343404e-08
1.015459961846555e-08
1.015456164288759e-08
1.01545224385512e-08
1.015448109454687e-08
1.015443847796685e-08
1.015439723985503e-08
1.015435665732142e-08
1.015431557314535e-08
1.015427413048515e-08
1.015423223955068e-08
1.015419097936443e-08
1.015414942424309e-08
1.015411163449303e-08
1.01540783264351e-08
1.015404948936479e-08
1.015402690690983e-08
1.015401190058411e-08
1.015400856574083e-08
1.015820564603762e-08
1.239031504282394e-08
7.597171217071498e-07
8.087184338205325e-05
0.0006434996767941552
4.384465700540374e-14
6.644137524909583e-12
1.256350431156389e-10
9.191465458586503e-10
4.046915749318538e-09
1.298467630530836e-08
3.33895272758458e-08
7.269523757121225e-08
1.390933065718719e-07
2.405940407516495e-07
3.845135948907506e-07
5.770434876082187e-07
8.22610215335584e-07
1.123291419973723e-06
1.457119247236585e-06
1.839739784412982e-06
2.281274867048065e-06
2.786835150954015e-06
3.360172750902857e-06
4.004609498483955e-06
4.723204590426508e-06
5.518142562273917e-06
6.387963401383371e-06
7.31974973766861e-06
8.271268223517545e-06
9.285106618857941e-06
1.037723216215473e-05
1.155576246814717e-05
1.282932104216268e-05
1.420516850350491e-05
1.569035218210494e-05
1.729185947461184e-05
1.901651730806269e-05
2.087085410421595e-05
2.286092261129591e-05
2.499207501302684e-05
2.726868115878306e-05
2.969378116710353e-05
3.226866314799573e-05
3.499235812447275e-05
3.786104858649091e-05
4.086738833039398e-05
4.399972258365699e-05
4.724117873945386e-05
5.056860058195232e-05
5.395134214847808e-05
5.734999665122364e-05
6.071513781368787e-05
6.398603964215832e-05
6.708892817810347e-05
6.993501841835915e-05
7.241824794360854e-05
7.441427203201249e-05
7.582544724126551e-05
7.653038603512814e-05
7.642093437895705e-05
7.505028092828474e-05
7.209482356553088e-05
6.809164596667549e-05
6.36248567619593e-05
5.927245653489918e-05
5.54711972360926e-05
5.167892268746757e-05
4.46733796718157e-05
3.675050371300239e-05
2.832723778582225e-05
2.002787659850668e-05
1.258028007905568e-05
6.543417463720697e-06
2.400121364019334e-06
5.62102913390812e-07
1.060273380589166e-07
2.500191945151687e-08
1.226805399093478e-08
1.038600484545678e-08
1.011996772028083e-08
1.008362556785849e-08
1.007877131604641e-08
1.007811527606104e-08
1.00780050898878e-08
1.00779626935452e-08
1.007792691384284e-08
1.007789018376751e-08
1.007785164370773e-08
1.007781127727144e-08
1.007776913348214e-08
1.00777253654861e-08
1.00776801386891e-08
1.007763257806288e-08
1.007758344416484e-08
1.00775353769523e-08
1.007748780208298e-08
1.007743955929532e-08
1.00773908408237e-08
1.007734182345063e-08
1.007729357473417e-08
1.00772452746809e-08
1.007720068358854e-08
1.007716103231808e-08
1.00771268081933e-08
1.007710009038715e-08
1.007708249400857e-08
1.007707957990292e-08
1.008802219036285e-08
2.354956634174757e-08
7.846498147913716e-06
0.0003655882151457728
0.001665844536347692
3.430419105488469e-14
5.198633105065344e-12
9.833644457957145e-11
7.203557607741958e-10
3.181400134610939e-09
1.02640242495482e-08
2.660402769758622e-08
5.847658550459736e-08
1.129920933896842e-07
1.972365535454042e-07
3.178123655246714e-07
4.806195954019569e-07
6.904794343863881e-07
9.505766517588511e-07
1.257552478028461e-06
1.598026695087061e-06
1.989925124948e-06
2.439989577724016e-06
2.952401914514471e-06
3.530718582746253e-06
4.178194302455913e-06
4.897127325539734e-06
5.685881566766638e-06
6.530277212909053e-06
7.394280857017847e-06
8.3243378129063e-06
9.327382883814718e-06
1.041149666120235e-05
1.158516049507843e-05
1.285604716324796e-05
1.423135704893207e-05
1.571832475725473e-05
1.732416422308591e-05
1.905597251199194e-05
2.092060309312676e-05
2.292450052910999e-05
2.507348800532741e-05
2.737249880372838e-05
2.982524221445139e-05
3.243379461703962e-05
3.519810774693594e-05
3.811542500379099e-05
4.117958623259276e-05
4.438018079356823e-05
4.770150521840615e-05
5.112131807560421e-05
5.460944215668449e-05
5.812629499076485e-05
6.162142714498689e-05
6.503217837931578e-05
6.828265561190074e-05
7.12833652854508e-05
7.393202900681925e-05
7.611573336083144e-05
7.773127724312285e-05
7.866690509571597e-05
7.883109169267861e-05
7.815422736329152e-05
7.65946925025139e-05
7.301322086808507e-05
6.848416596647655e-05
6.392782603673786e-05
5.971067039037916e-05
5.486646723895925e-05
4.737797642819796e-05
3.873996151167431e-05
2.942367998629854e-05
2.02320882658574e-05
1.214092455327108e-05
5.834168501909217e-06
1.835129089500401e-06
3.560397100023722e-07
6.100177772440843e-08
1.687758609249909e-08
1.089091215552378e-08
1.012087332824808e-08
1.002567304828915e-08
1.001422031181409e-08
1.00128447207514e-08
1.001265507824176e-08
1.001260123874063e-08
1.001256097513849e-08
1.001252030195669e-08
1.0012477690399e-08
1.001243305602777e-08
1.00123864475862e-08
1.001233800527379e-08
1.001228792186387e-08
1.001223535410891e-08
1.001218098095982e-08
1.001212741888918e-08
1.001207421029032e-08
1.001202019730269e-08
1.001196562702855e-08
1.00119107382533e-08
1.001185660425079e-08
1.001180251868689e-08
1.00117519729584e-08
1.001170660416645e-08
1.00116672917752e-08
1.001163635809455e-08
1.001161564220732e-08
1.001161978344046e-08
1.01161934450019e-08
3.004161111128448e-07
8.110856904223741e-05
0.001165771336776659
0.003295227036751665
2.801907775776386e-14
4.246298027211425e-12
8.034303697249444e-11
5.891071449891623e-10
2.607748711255332e-09
8.448925881762679e-09
2.203740570115879e-08
4.881908991772382e-08
9.512301754344787e-08
1.67372369214051e-07
2.716263540159193e-07
4.134531707751656e-07
5.977607813760861e-07
8.283924604893411e-07
1.10769105571444e-06
1.423761646979747e-06
1.781785424939405e-06
2.192942841162488e-06
2.6623139078101e-06
3.193349171174835e-06
3.789014337219793e-06
4.451298842380961e-06
5.178837999932114e-06
5.959173526929982e-06
6.756278739676778e-06
7.6141331115315e-06
8.539548190628488e-06
9.540637312782184e-06
1.062579135272151e-05
1.180290081661383e-05
1.307910533238031e-05
1.446158154908276e-05
1.595752226618183e-05
1.757406943957093e-05
1.93182225703345e-05
2.119671592349572e-05
2.321585771602439e-05
2.538132362825823e-05
2.769789655559068e-05
3.016914526375452e-05
3.279703515969711e-05
3.558146296936591e-05
3.851969618831158e-05
4.160567584151188e-05
4.482913306432694e-05
4.817450174916648e-05
5.161966504641863e-05
5.513460124346783e-05
5.867998544484169e-05
6.220582534701619e-05
6.565028494902593e-05
6.893894895829834e-05
7.198489287462293e-05
7.469001513197365e-05
7.694805499556485e-05
7.864814015315693e-05
7.969868293020893e-05
8.000760137291224e-05
7.950811024666119e-05
7.814240427932296e-05
7.559173925688862e-05
7.151939012451247e-05
6.713245345387446e-05
6.267905606811589e-05
5.616343089153595e-05
4.805652587927651e-05
3.86442883892309e-05
2.849927945066966e-05
1.86737025172078e-05
1.038736647141022e-05
4.328818911813687e-06
1.060577261415573e-06
1.684404975512189e-07
2.99569276906745e-08
1.231617321097493e-08
1.022279451349136e-08
9.985387922753076e-09
9.959328087989442e-09
9.956502212539699e-09
9.956169685861003e-09
9.956099505835543e-09
9.956054844461637e-09
9.956010755396319e-09
9.955964666678452e-09
9.955916393805636e-09
9.955865984029568e-09
9.955813569558366e-09
9.955759362415407e-09
9.955702546675335e-09
9.955643739181611e-09
9.955585531440397e-09
9.955527558779302e-09
9.955468665701706e-09
9.955409129254252e-09
9.955349211469216e-09
9.955289997773938e-09
9.955230850425755e-09
9.955174993761222e-09
9.955124383822153e-09
9.955080189675536e-09
9.955044783918431e-09
9.955020943804071e-09
9.959086072654819e-09
2.997304762909607e-08
1.632408163518764e-05
0.0006367419363869628
0.00357846081357171
0.005977950324796199
2.309528250118278e-14
3.500194865150912e-12
6.62406840552247e-11
4.860959471267819e-10
2.15601916179219e-09
7.011217861667736e-09
1.839058206229668e-08
4.103493331547086e-08
8.059365327060139e-08
1.429118246455544e-07
2.335559385638105e-07
3.577017654718555e-07
5.200902456123094e-07
7.247732331762858e-07
9.746802358193648e-07
1.26935991641891e-06
1.595505802547033e-06
1.969321596307188e-06
2.396847853821044e-06
2.881510451508031e-06
3.426304540278714e-06
4.032983496891099e-06
4.699498920368813e-06
5.411521609468944e-06
6.146866771167637e-06
6.938399082006873e-06
7.792629424167584e-06
8.717473135542002e-06
9.721318700150916e-06
1.081219809045357e-05
1.199720358163482e-05
1.328347172394799e-05
1.467818050678298e-05
1.618849708679774e-05
1.782150506942528e-05
1.958410616537205e-05
2.148289071291543e-05
2.352397086662711e-05
2.571277015858879e-05
2.805376408782409e-05
3.05501670941889e-05
3.320355972024493e-05
3.601343754524116e-05
3.897663832025654e-05
4.208659369486295e-05
4.533238425223757e-05
4.869763241459021e-05
5.21592910111129e-05
5.568636387696848e-05
5.923860093113553e-05
6.276527115733691e-05
6.620420150857348e-05
6.94813738992645e-05
7.251148911856477e-05
7.519998022895846e-05
7.744682518899323e-05
7.915188137810891e-05
8.02183702570152e-05
8.057478258563347e-05
8.014431987410633e-05
7.883735245969758e-05
7.657515514670033e-05
7.327082523374401e-05
6.880071677502581e-05
6.299655548776887e-05
5.569624013425439e-05
4.682590567017075e-05
3.657319862712707e-05
2.571595902022945e-05
1.565411750509098e-05
7.735731879116815e-06
2.530838272110027e-06
4.496941299654215e-07
6.374694485880132e-08
1.583647530272521e-08
1.052761443794679e-08
9.969439805136462e-09
9.912885810615236e-09
9.907269821908839e-09
9.906686930940322e-09
9.906592442099724e-09
9.906543155327382e-09
9.906496026619439e-09
9.906446903992276e-09
9.906395462649781e-09
9.906341744860515e-09
9.906285878328107e-09
9.906228090396692e-09
9.906167587391183e-09
9.906104938229184e-09
9.906042712765554e-09
9.905980621124373e-09
9.90591751028445e-09
9.905853675327767e-09
9.905789397816369e-09
9.905725775020783e-09
9.905662204815497e-09
9.905601659371271e-09
9.905546366732059e-09
9.90549774736571e-09
9.90545827992843e-09
9.908489619527971e-09
1.421280016250383e-08
3.054458991938105e-06
0.000271845767927484
0.002400351897750262
0.00812767731862943
0.008637502350433951
1.932615427522847e-14
2.929035007549977e-12
5.544160229144154e-11
4.071232020229698e-10
1.808756863740839e-09
5.900566381548216e-09
1.555355555146808e-08
3.492973650450463e-08
6.910873814763074e-08
1.23453010356153e-07
2.031186247310923e-07
3.129153154580566e-07
4.573179215717382e-07
6.403296246450145e-07
8.651278226200321e-07
1.133702546351052e-06
1.437293723956357e-06
1.779958976679674e-06
2.171343757559061e-06
2.615620888135821e-06
3.115681003374654e-06
3.673310417894455e-06
4.286181650888991e-06
4.939222387304603e-06
5.619395397521714e-06
6.351436136669524e-06
7.141519989832568e-06
7.997352904682509e-06
8.927247774570326e-06
9.939222904523465e-06
1.104025909926607e-05
1.22373697927816e-05
1.353762748534539e-05
1.49481221128319e-05
1.647590144874364e-05
1.812789002229274e-05
1.991078188065011e-05
2.183090219365277e-05
2.389403331733107e-05
2.610520184447449e-05
2.84684243408607e-05
3.098640807752992e-05
3.366019002305351e-05
3.648867076174801e-05
3.946798870621456e-05
4.259071099564594e-05
4.584487151838464e-05
4.921290888843727e-05
5.267053046027146e-05
5.618552170032152e-05
5.971656842830618e-05
6.321223012472524e-05
6.661028736608621e-05
6.98377763392832e-05
7.281208196900249e-05
7.544339286524293e-05
7.763843796752651e-05
7.930453109850217e-05
8.035167795180315e-05
8.068922973537771e-05
8.02194407652997e-05
7.883608840272266e-05
7.642813163393728e-05
7.286809846455596e-05
6.799736413665935e-05
6.162647327426821e-05
5.358763912063696e-05
4.381476572306841e-05
3.270059914518408e-05
2.140200902750322e-05
1.171029100810784e-05
4.769651299114295e-06
1.0731609127124e-06
1.442600484423807e-07
2.387154768420636e-08
1.123354045975255e-08
9.991738595315743e-09
9.874606376457518e-09
9.863839047513411e-09
9.86282964226735e-09
9.862698515590426e-09
9.862644050584986e-09
9.862594164569216e-09
9.862542368671747e-09
9.862488145928352e-09
9.862431529386956e-09
9.862372645353329e-09
9.862311735339858e-09
9.862248024482333e-09
9.862182045677894e-09
9.862116352659946e-09
9.86205071821774e-09
9.861983995329709e-09
9.861916494033545e-09
9.861848519390702e-09
9.86178119086098e-09
9.86171395148671e-09
9.861649553138301e-09
9.86159047949217e-09
9.861539009217348e-09
9.862806337518638e-09
1.112415068278069e-08
7.318469970323944e-07
0.0001133716047376827
0.001634967932562028
0.006282628526068848
0.01583554900141182
0.01142091911451646
1.636813724906097e-14
2.480772584840381e-12
4.696394461587011e-11
3.450667687582382e-10
1.535240201033935e-09
5.022014417457135e-09
1.329514013825509e-08
3.003208158414966e-08
5.982307644048767e-08
1.076141143566982e-07
1.782140439146566e-07
2.761150467560008e-07
4.055210962983662e-07
5.703013887624245e-07
7.737335839256031e-07
1.01816404559257e-06
1.303092606180996e-06
1.618963072346913e-06
1.979122672496512e-06
2.388438452444315e-06
2.849139115767363e-06
3.363214717801551e-06
3.928092522658698e-06
4.528013868496745e-06
5.157549312825411e-06
5.834918706996311e-06
6.565900327751517e-06
7.357923877231052e-06
8.219316580651478e-06
9.157958938879997e-06
1.018068152928401e-05
1.129431694685423e-05
1.25057674935396e-05
1.382197291342348e-05
1.524986137009882e-05
1.679628180863414e-05
1.846791364643101e-05
2.02711499767864e-05
2.221195099880811e-05
2.429566551429764e-05
2.652681977566816e-05
2.890887176438104e-05
3.144391619262017e-05
3.413229762303686e-05
3.697207878203132e-05
3.995834335373624e-05
4.30823634755531e-05
4.633068220593367e-05
4.968413114038667e-05
5.311679101908016e-05
5.659494302126627e-05
6.007611658863837e-05
6.350840330978093e-05
6.683026036464043e-05
6.997104030421209e-05
7.285239124031566e-05
7.539035570289994e-05
7.749739675463512e-05
7.908285955497524e-05
8.005053062653594e-05
8.02948531034952e-05
7.969501314575178e-05
7.81202704811318e-05
7.543042266241067e-05
7.146677908418731e-05
6.603293266836492e-05
5.890937452373614e-05
4.993121798684747e-05
3.913684921757066e-05
2.728269265397456e-05
1.61110322717696e-05
7.528226440422231e-06
2.191543866031613e-06
3.21013590857673e-07
4.121179603659276e-08
1.271540348013472e-08
1.007840700809632e-08
9.845279263279902e-09
9.825280268547271e-09
9.823558922728143e-09
9.823372264165814e-09
9.823311642743416e-09
9.823259197932591e-09
9.823205014072159e-09
9.823148317991184e-09
9.823089130115095e-09
9.823027577910738e-09
9.822963917148882e-09
9.822897389425758e-09
9.822828501100507e-09
9.822759794998452e-09
9.822691097776628e-09
9.822621272671402e-09
9.822550644410341e-09
9.822479540647105e-09
9.822409102910678e-09
9.822338783943646e-09
9.822271233660033e-09
9.822209111712228e-09
9.822203207288921e-09
9.893636925685765e-09
6.653779780852766e-08
2.172056492191484e-05
0.0007210916227882175
0.003895048422973034
0.0103365723387309
0.01915341338183762
0.01244802572017206
1.418391731367735e-14
2.14976397594764e-12
4.07025768798811e-11
2.991999662118061e-10
1.332720325903772e-09
4.369376800220336e-09
1.160932886590066e-08
2.635476012179344e-08
5.281096344984308e-08
9.559974307101802e-08
1.592734372200575e-07
2.480967233695826e-07
3.660639704376332e-07
5.169023715865886e-07
7.038867379138442e-07
9.295289012151036e-07
1.195300328249056e-06
1.492823159553532e-06
1.828950548658667e-06
2.210739340398367e-06
2.640013696642501e-06
3.119020168550527e-06
3.645375222207332e-06
4.203715077365888e-06
4.791664615421042e-06
5.423885740979785e-06
6.10561832150144e-06
6.843891501065975e-06
7.647137999186226e-06
8.523128269209483e-06
9.478515125423548e-06
1.051991962357839e-05
1.165403405549174e-05
1.288759681708729e-05
1.422735116945159e-05
1.567998756236086e-05
1.725206627455872e-05
1.894991721749426e-05
2.077951427982796e-05
2.274632288491344e-05
2.485512115138396e-05
2.710979392872591e-05
2.951308620854561e-05
3.206627723701768e-05
3.476872594099012e-05
3.761726864726959e-05
4.060550186201529e-05
4.372299798830889e-05
4.695446923288278e-05
5.027888374774447e-05
5.366857217430854e-05
5.708840787785049e-05
6.049518861881697e-05
6.38373744868729e-05
6.705532163327116e-05
7.008204423742431e-05
7.284426236280404e-05
7.526304438255468e-05
7.725296466853472e-05
7.871875780307439e-05
7.955114547135446e-05
7.96230053451142e-05
7.879064155926139e-05
7.689933462249276e-05
7.37792182198177e-05
6.923169300229868e-05
6.301952306207575e-05
5.490378889739108e-05
4.477064631043307e-05
3.294573525241524e-05
2.079629643194384e-05
1.064852115461962e-05
3.809457404386288e-06
6.734605150440032e-07
7.707287237678327e-08
1.567921458881611e-08
1.027754840306928e-08
9.827252341733337e-09
9.790977484425482e-09
9.788078884057566e-09
9.787807497289196e-09
9.787739117632701e-09
9.787684203476935e-09
9.787627852149202e-09
9.787568927117546e-09
9.787507425628959e-09
9.787443477122144e-09
9.787377351523136e-09
9.787308304375057e-09
9.787236821414096e-09
9.787165437913534e-09
9.78709402607765e-09
9.787021459936087e-09
9.786948076064202e-09
9.78687423476586e-09
9.786801104798418e-09
9.786728140376419e-09
9.786657854138831e-09
9.786593791034869e-09
9.789371024462328e-09
1.324326047879347e-08
2.421583434071915e-06
0.0002285549902218418
0.002204265089320313
0.007021457636304021
0.01537830410188709
0.02383571941414152
0.0139347824706786
1.241948077669659e-14
1.882365315010123e-12
3.564353409046457e-11
2.621155324291748e-10
1.168705021526625e-09
3.839160004880592e-09
1.023309784496156e-08
2.333395116915391e-08
4.701138555023628e-08
8.559976123156942e-08
1.434272078038651e-07
2.245640441535696e-07
3.328169933135178e-07
4.717604773094978e-07
6.44611336816668e-07
8.539570613712146e-07
1.101466187044296e-06
1.383876640444994e-06
1.699111909101125e-06
2.056672744682752e-06
2.458912528284886e-06
2.907282962128098e-06
3.399800594523002e-06
3.920972105327459e-06
4.472897820473605e-06
5.06619990076941e-06
5.705316542846496e-06
6.396592174569567e-06
7.148862426391275e-06
7.969728844807716e-06
8.865719068969496e-06
9.84324590787368e-06
1.090878864099102e-05
1.206887485541202e-05
1.333004547448103e-05
1.469880550708372e-05
1.618155775115117e-05
1.77845172089593e-05
1.951360418249582e-05
2.137431529259815e-05
2.337157397184665e-05
2.55095607338233e-05
2.779150995971068e-05
3.021943255172617e-05
3.279371537526318e-05
3.551258530166442e-05
3.837147852103166e-05
4.136236255276852e-05
4.447301933513058e-05
4.768629183316979e-05
5.097932959398556e-05
5.432289997080321e-05
5.768085811638599e-05
6.100988003222824e-05
6.425953034471622e-05
6.737261511860744e-05
7.028552225960913e-05
7.292791567859785e-05
7.522093936806642e-05
7.707348506806147e-05
7.837760838495746e-05
7.90046189262177e-05
7.880567166336906e-05
7.761515512853962e-05
7.525308824742604e-05
7.15171682077426e-05
6.616445063476325e-05
5.892380721639244e-05
4.958216345511359e-05
3.815667610232513e-05
2.556191324428246e-05
1.405939486592019e-05
5.798687364967625e-06
1.290997927551258e-06
1.478274603078963e-07
2.139350623960399e-08
1.067326365779906e-08
9.825130021604285e-09
9.760600673241641e-09
9.755773499368294e-09
9.755372614474251e-09
9.755294083418544e-09
9.755236756162081e-09
9.755178411068647e-09
9.755117443529862e-09
9.755053826423546e-09
9.754987691860284e-09
9.754919324158095e-09
9.754847990727113e-09
9.754774161001868e-09
9.754700366121338e-09
9.754626517114359e-09
9.754551498830509e-09
9.754475657506109e-09
9.754399366313542e-09
9.754323819047733e-09
9.754248503664594e-09
9.754175870138886e-09
9.754192208134824e-09
9.931656821532387e-09
1.86725227674101e-07
5.012098708840971e-05
0.001053024436611423
0.004600722467445885
0.01108209629784538
0.02055393934592907
0.02885682788091655
0.01541061403466184
1.104619533615653e-14
1.674241420992282e-12
3.170538532252101e-11
2.332325370932791e-10
1.040798191788633e-09
3.424667117121143e-09
9.153221929060096e-09
2.095233296763994e-08
4.241585590006566e-08
7.76412364879061e-08
1.307786421701657e-07
2.057534364183075e-07
3.062312879522819e-07
4.356579253050207e-07
5.971751428452281e-07
7.933834640163464e-07
1.02605779781083e-06
1.295551767478854e-06
1.593412319231946e-06
1.930958016129803e-06
2.311111265743227e-06
2.734037818559943e-06
3.198524854492184e-06
3.689593887392775e-06
4.211352632692848e-06
4.771918925256838e-06
5.375083974953615e-06
6.026191289899575e-06
6.733985871136337e-06
7.506346072968322e-06
8.349691542266975e-06
9.270241198236383e-06
1.027427619756629e-05
1.136813121727621e-05
1.255816762092206e-05
1.385073378437997e-05