/*--------------------------------*- C++ -*----------------------------------*\
| =========                 |                                                 |
| \\      /  F ield         | OpenFOAM: The Open Source CFD Toolbox           |
|  \\    /   O peration     | Version:  v1812                                 |
|   \\  /    A nd           | Web:      www.OpenFOAM.com                      |
|    \\/     M anipulation  |                                                 |
\*---------------------------------------------------------------------------*/
FoamFile
{
    version     2.0;
    format      ascii;
    class       volScalarField;
    location    "0.00000106";
    object      omega;
}
// * * * * * * * * * * * * * * * * * * * * * * * * * * * * * * * * * * * * * //

dimensions      [0 0 -1 0 0 0 0];


internalField   nonuniform List<scalar> 
44064
(
1142188.312110459
209625.2762659204
73542.35793643678
35979.77470911187
21490.04111023109
14597.38443989557
10711.76857227167
8173.402759643003
6351.153577159622
5002.863514247652
3998.114388342123
3242.17026082753
2669.271022209698
2229.537280377205
1886.506585348286
1614.936428386805
1396.772569982503
1219.016129660119
1072.270059637818
949.65938090131
846.0498678140955
757.5432870802433
681.1544518196683
614.5924075822221
556.0924711807027
504.2812110311651
458.099166648305
416.7175324031568
379.4735233450335
345.8345078869293
315.373758436449
287.7355971138268
262.6152636597163
239.7468898675505
218.8960065444849
199.8472853326934
182.4176220057815
166.4588319554148
151.8116453014639
138.3416074890706
125.9515074513509
114.5778001639459
104.1486930367559
94.53690767351115
85.58436171738404
77.19312164068893
69.37584837629902
62.25073942177057
55.88553637190186
50.22522959906308
45.16004690841827
40.56652600992314
36.32605256183605
32.34460350872962
28.56997160557988
24.99506975450554
21.64797477364219
18.57789946903469
15.84273983135025
13.49861659433454
11.58980046956319
10.1349612828154
9.127648613376287
8.522267965525996
8.212144516488257
8.072599528483618
8.017488118886254
7.997997232771391
7.991516926365168
7.989507308278567
7.988924441410872
7.988781060047636
7.988745041413589
7.988732785860097
7.988728223558792
7.988725390831689
7.988722285836589
7.988718990396178
7.988715479840977
7.98871173905033
7.988707785575058
7.988703641612923
7.988699332360034
7.988694887369326
7.988690339288807
7.988685717191795
7.988681115127333
7.988676328327582
7.988671555161271
7.988667520045245
7.988663382844185
7.98865904049802
7.988655149932411
7.988651431464291
7.988647846806512
7.988645240167963
7.988641873586409
7.988639091131423
7.988637739034704
7.988636381189291
7.988635235707894
7.988634517179959
7.988634301241498
7.98863477864008
7.988638507446849
7.989565623305261
8.217550387743161
26.37998943495669
1142180.971312165
209461.3808883921
73210.27521196275
35454.42072977885
20821.93418344899
13905.6140916737
10134.87000826542
7800.177404143415
6181.165835385828
4969.071023009047
4032.684003152227
3306.65121921481
2741.732216981635
2297.717935340509
1945.483140413573
1663.438727362151
1435.22286263405
1248.725996780952
1094.824082632904
966.5761859815074
858.6628238850743
766.9700775672263
688.2888345741787
620.11543712726
560.4955905543
507.9311224698061
461.3118992310988
419.7376927282449
382.5317609998587
349.1391373838002
319.0962175133507
292.0154525456913
267.5570097606551
245.4321536628735
225.3923344206169
207.1961115796665
190.6490398673144
175.5522576837477
161.7452938581521
149.1083502335722
137.5444015061471
126.9721506213314
117.3229577961591
108.5413842944685
100.5898490032501
93.43618122566234
87.06665342672325
81.35509381271022
76.15884647409547
71.30066964422284
66.57837171795606
61.75723906967725
56.6712911397552
51.52157314293516
46.68870313630192
42.23134523582711
38.00937698244662
33.86165983271005
29.69705353746431
25.51873473962558
21.40694253294714
17.51435960118044
14.03747691687952
11.15860264107339
9.017274640408486
7.680157243656138
7.04775412932247
6.821505267473275
6.757124774000919
6.741131852850779
6.737472785011498
6.736616799942602
6.736400845521134
6.736325947173134
6.736269018244151
6.736207795794239
6.736138843338359
6.736061295882914
6.735974845469053
6.735879417786408
6.735775041725038
6.735661822436608
6.735539952355223
6.735409720707997
6.73527152187429
6.73512583784839
6.734973367644175
6.734814655430161
6.73464957353769
6.734481680866591
6.734315028171508
6.734146778289555
6.733976247183406
6.733804080150541
6.733631283155482
6.733459745380808
6.733285795292573
6.733143749137175
6.733025282908275
6.732924998835497
6.7328471654395
6.732797583312014
6.732782925043992
6.732812946245859
6.732915929001861
6.736552744784965
7.368518110840306
28.7950658798641
1142175.316794766
209430.5332101643
73127.39022230709
35302.85512063095
20605.44153421553
13651.24019980355
9886.264369471341
7600.659061525826
6054.353136436381
4911.035984422689
4020.9598342858
3316.501063804462
2758.740468072811
2315.755888020366
1961.057140531766
1674.755660952201
1441.625656132665
1250.516979262876
1092.712127986659
961.368018280669
851.1783447993317
757.9761262592998
678.4770967817682
610.0664288402546
550.6519893036262
498.497201527961
452.3013570976648
411.1308370026034
374.284902978376
341.215598159034
311.4672935758336
284.6556882579364
260.4530710134889
238.5774112997214
218.7841480283634
200.8599339914525
184.6179124635535
169.8940166820841
156.5441951683558
144.4421200372918
133.4771340621366
123.5524366376553
114.5835567904262
106.4977473262111
99.18910722463107
92.57071850839516
86.58008907446593
81.16874778270396
76.29125458450453
71.90088661686843
67.95088736734641
64.3864864238468
61.08669292752728
57.89824737735329
54.65157291087461
51.14952867218599
47.24602022324218
43.09639880085844
39.04029932287702
35.06850429619679
31.00503493299636
26.7650003232633
22.39226629130225
18.03708959937581
13.95765545750951
10.50367497098012
8.002421784618422
6.599748751689096
6.063831789793286
5.922636382420962
5.892887766735841
5.887235580513992
5.886180483631637
5.885947244222041
5.885843806748626
5.885752444498835
5.885655546804577
5.885550096760295
5.885435318089464
5.885310944220397
5.885176825541596
5.885032879793272
5.884879104093126
5.884715582918182
5.884542505465747
5.884360130447498
5.88416893686518
5.883969382710557
5.883761212366662
5.883550045342707
5.883341187744123
5.883127499691288
5.882908403064042
5.882685302667459
5.88245805871248
5.882229407887705
5.88199782573948
5.881796066213695
5.881620205109692
5.881467969272988
5.881347137899174
5.881265354077735
5.881233432287599
5.881265334964232
5.88140998784803
5.88973528988529
7.117069532672335
27.0154232556712
1142171.775793784
209411.2820736471
73075.18636190817
35206.06751829183
20464.42733420884
13481.10510729285
9714.81971524738
7460.084094691184
5968.557094221331
4885.896652109684
4044.442853578883
3367.735257906399
2819.356317951665
2375.611546270399
2015.8557668061
1722.636563124956
1482.279341081945
1283.938182344051
1119.441742696994
982.3292825999937
867.3705867910197
770.3604110778012
687.9145375043664
617.3168959303139
556.202774046122
502.6894860536146
455.4293503767011
413.4073878682803
375.8525113616942
342.1872021029077
311.9364918608948
284.7011766673594
260.1416988809229
237.9663657224899
217.9225402798247
199.7899332476704
183.3753975608965
168.5088098248076
155.0397482754582
142.8347584941164
131.7750553007031
121.7545684142613
112.6783134269768
104.461120894116
97.02672532419085
90.30752257107179
84.2441375667226
78.78443132301766
73.8643982972888
69.42925601920531
65.44538084663826
61.88310261913778
58.71693680922579
55.91047170345121
53.38155109963143
50.99838936585373
48.59427081804792
46.00852454015958
43.08639568447087
39.74227085176572
36.15051350892289
32.50830146303524
28.68468840542774
24.55565820594382
20.14633320355888
15.66393371299997
11.51540783042019
8.245151826355942
6.272637457093818
5.501891418280264
5.314035936920215
5.279726551438804
5.274165174940883
5.273268014229159
5.273061759276738
5.272943364121423
5.272828497961288
5.272705647679389
5.27257298588032
5.272430088735518
5.272276748754123
5.272112842648971
5.271938333066783
5.271753273392152
5.271557835070587
5.271352264317868
5.271137016572965
5.270912626413922
5.270679010572151
5.270440830466293
5.270202686987646
5.269959150679154
5.269709893885165
5.269456441574849
5.269199471798418
5.268942050278779
5.268683448977679
5.268451700644877
5.268247522592516
5.268071516146417
5.267932220426178
5.267839019980302
5.267805042959064
5.267847667267326
5.268056891417904
5.289547184189247
7.407762905661672
20.54522097098927
1142169.640753882
209399.657684486
73043.35131759442
35145.99926330503
20374.41845923822
13367.65425007156
9592.388273851644
7347.788790074783
5883.964454463355
4838.565232903854
4033.146290044844
3382.995146517683
2848.897913432464
2410.272588554182
2050.622229935276
1754.813824055242
1510.680803382609
1308.497659594757
1140.143414187456
999.3514702990294
881.0743119690343
781.2138962958606
696.4355631641231
624.0104682120026
561.4777305103108
506.8547551012867
458.7100766658452
415.966536837539
377.7990660302397
343.6063764107329
312.8998936418859
285.2696481055594
260.3671730905653
237.893206000755
217.5885570877199
199.2271962257024
182.6109131764711
167.5651059775408
153.9353967862338
141.5848625439181
130.3917233534118
120.247390253688
111.054833007707
102.7272632602601
95.18708332898646
88.36498141685161
82.19905403987229
76.63395210662544
71.6202079349252
67.1141898881841
63.0781404533425
59.48040370142621
56.29469752171744
53.46875676841258
50.96726963551173
48.74637950164712
46.73521976430379
44.81604680332057
42.84236953392122
40.6461987821047
38.09913308750032
35.14116723212469
31.91886570875564
28.53246547507263
24.79002990636827
20.59777207447541
16.06560637958496
11.61981742565185
7.979745275099734
5.794368798374791
5.006534689196667
4.840868578593665
4.815073097999725
4.811462514868521
4.810915987558871
4.810752503224362
4.810626490412059
4.810495940114942
4.81035566317849
4.810204844409034
4.810043193668356
4.809870536836057
4.809686787562695
4.809491946639542
4.80928613738306
4.809069564522539
4.808842621777089
4.808605834715183
4.808359194621584
4.808106667810198
4.807852303398137
4.807591828478851
4.80732513588413
4.80705390189251
4.806780309686739
4.806507074043044
4.806233730633518
4.805984968950801
4.805764580328562
4.805575084034189
4.805425787355276
4.805327353329878
4.805294292678473
4.805346839080823
4.805725123915532
4.903569575587533
8.440678735607229
17.17634895823914
1142167.865829559
209389.9999687141
73016.74856191958
35095.3018922509
20297.27338243838
13268.17040380789
9481.399273340401
7240.979094501601
5797.586015896184
4784.080275870082
4013.586987843205
3393.172503682664
2878.941369172362
2449.909085729626
2093.170310409037
1796.984709511791
1550.47835461335
1344.797972410594
1172.79674930009
1028.288516800263
906.4148125929519
803.1974247530703
715.3261500725371
640.2616842883101
575.5101064786671
519.0121634387759
469.2718669833583
425.141834577948
385.7569342412642
350.4798154605974
318.807610244624
290.3184641901184
264.6532348010207
241.502829121881
220.5989040883703
201.7068918876753
184.620649204489
169.1582547523159
155.1586348598549
142.4787969328305
130.9915174350699
120.5833884077745
111.153183181915
102.6105360515483
94.87488896588448
87.87458581196898
81.54598868280114
75.83257604469932
70.6840644770016
66.05557585559866
61.90679895603709
58.20104257792813
54.90400101963407
51.98237484671085
49.39199895625131
47.09283318880345
45.03198267981378
43.14665632394016
41.36670242700099
39.60153836242198
37.70980287716186
35.55170937303613
33.06430313478074
30.2893343697959
27.26657391742762
23.86612858931861
19.89748590754859
15.40670793728575
10.86554320297874
7.180450305264062
5.164301653407578
4.566379951489395
4.464878333387857
4.4514997407062
4.449829566993114
4.449543676034248
4.449402363664339
4.449267166950984
4.449123193888608
4.4489686862016
4.44880324517004
4.448626664217879
4.448438828766302
4.448239707237915
4.448029389264456
4.44780805227104
4.447576044681335
4.447333870905751
4.447081563872011
4.446822583628286
4.446560549254587
4.446291981406111
4.446016908588449
4.445737074720312
4.445454869860068
4.445173032382237
4.44489148826879
4.444632311975584
4.444401175728244
4.444201734740115
4.444044053417729
4.44393908965354
4.443901334559537
4.443951746775435
4.446679902449523
4.950397079823472
10.45121232266502
18.57236723225128
1142166.569424028
209382.9390949592
72997.18811445781
35057.64488996498
20239.05447468648
13191.27911769453
9392.500102118496
7150.672119078052
5717.969618328106
4725.215493296965
3980.408600738916
3384.496887208583
2888.962363386734
2471.007023187555
2118.825358079097
1823.219344738001
1575.15070927473
1366.797072247229
1191.722095292426
1044.483407941853
920.3761643928867
815.4955979140791
726.4895586550984
650.4844346732773
584.9280659502432
527.7051681173225
477.2818356722822
432.4840337592629
392.4433457387084
356.5197392823804
324.2231473824476
295.1415347250658
268.9222252955416
245.2596964051392
223.8868440277063
204.5685661568464
187.096907489837
171.287272988501
156.9753866098815
144.014777682906
132.2746538746015
121.638077214091
112.0004170441621
103.2680888641928
95.35754369780017
88.19438949388321
81.71251163525284
75.85315221565207
70.56400101814199
65.79833184782341
61.51415157204379
57.67329123869401
54.24034338729985
51.18133393795102
48.46204116540099
46.04668465718001
43.88614234837117
41.93199586009213
40.12391231112696
38.3995673597298
36.69325697510337
34.90685641203735
32.93598396948877
30.73243441253936
28.2793050344503
25.53025720432594
22.34906997137814
18.49247524934685
13.99394586055888
9.465501851789877
6.057227585863708
4.541781295472814
4.209424598340048
4.164806554663056
4.159731204306899
4.159105522737516
4.158931297125451
4.158791802315523
4.158646079841405
4.158490050829926
4.158323108111704
4.158145013317328
4.157955631214332
4.157754907154212
4.157542903660815
4.157319777179124
4.157085841662409
4.156841577211696
4.156587039438477
4.156325304038556
4.156059646100577
4.155787151038433
4.155507927304505
4.155223713023869
4.154936841075507
4.15465006526729
4.154363564379111
4.154097291928997
4.153858088977922
4.153650263910963
4.15348370300371
4.153369920092363
4.153323158071004
4.153443595446785
4.212935863767605
5.864077907351762
11.35670149908623
14.78716338327977
1142165.478171897
209376.9980793898
72980.65364692397
35025.56613398789
20188.87330286239
13123.85089766207
9312.568514244351
7066.473535811012
5639.636776178834
4662.154193429644
3938.61561288358
3365.120567673467
2888.772050952789
2484.27994092941
2139.549511489025
1847.226950001319
1600.232864053216
1391.524601928282
1215.27423058026
1066.306774226479
940.2781897706988
833.4664149544237
742.6615564927495
665.0438457154169
598.0590563319364
539.5816879464478
488.0323864674976
442.20064899466
401.1920752817981
364.3540797602763
331.2014105600641
301.3258109128888
274.3765488769749
250.048268805552
228.0725005171439
208.2115536595888
190.2539778027521
174.0110638813398
159.3140473903565
146.0117909379596
133.9688070512003
123.0635443996755
113.18692400945
104.2411493806781
96.13875805755907
88.80178308998521
82.16087901265567
76.15437738241474
70.72734757044117
65.8307180305063
61.42043713505994
57.45661242362738
53.90254400251688
50.72354540738699
47.88544025364513
45.35269807791545
43.08643716354038
41.04387664592146
39.1692502411663
37.41053639131204
35.72000620133439
34.03912282033611
32.30393954131722
30.45598735186982
28.4403760853722
26.18309603471388
23.59488668440769
20.49181611297047
16.59632782729528
12.01873754537179
7.66476275079126
4.927271163434197
4.067787715488602
3.935978851900978
3.921578029043534
3.92007968532398
3.919829229965085
3.919683183434107
3.919536670083641
3.919380352220814
3.919213213335171
3.919034973102845
3.918845478307489
3.918644656302731
3.91843254639276
3.918209285839047
3.917975159180088
3.917730620939397
3.917475735952418
3.917213276491847
3.916946235218145
3.916672110157693
3.916391055459223
3.916104770241219
3.915815502461867
3.915525962306293
3.915236445925031
3.914965144361344
3.91471958324545
3.914504380227014
3.914328741876621
3.914203952558116
3.914157459824865
3.921638242869585
4.398300726238092
7.251855698172655
11.24344879043283
16.88966353640118
1142164.575676775
209372.0833379767
72966.9228489793
34998.7462446048
20146.48255226435
13066.02435456112
9242.516544963701
6990.353442481609
5565.559236780065
4598.331540825546
3891.217567718506
3336.773639330689
2878.381291127502
2488.104491769944
2152.811203365928
1865.629696001675
1620.974773489831
1413.076756267889
1236.481663092796
1086.418840929309
958.9085886819687
850.4988636424308
758.1585063796515
679.1575050104914
610.9317229896171
551.3500316075797
498.7955262710858
452.0238374601192
410.118623693658
372.4204592767011
338.4512961240505
307.8093358103571
280.1480395458614
255.1641322997633
232.589424435538
212.1850585413419
193.7373151981855
177.054425555216
161.9640352218595
148.3110960758741
135.9560497632214
124.7732335695557
114.6495090843654
105.4831517135584
97.1829717919634
89.66752741120121
82.86427486288734
76.7086208622265
71.14296536144668
66.11580903703903
61.58091565414094
57.49647642119425
53.82420727716124
50.52830311655909
47.57417951691993
44.92698466480609
42.55002939461251
40.40361422034399
38.44511679383746
36.63132658325812
34.92086526184978
33.27245824926429
31.63933087489088
29.96873335565738
28.20261266628763
26.27403893839295
24.10269657743451
21.56869625035518
18.38710863586931
14.29071047525473
9.645019907864892
5.821986710447485
4.100065617692062
3.760963980763871
3.723133099605598
3.719545329999577
3.719124701264899
3.718965963583329
3.718818964825101
3.718663147642653
3.718496672397163
3.71831919194981
3.718130539487732
3.717930631122871
3.717719487925167
3.717497232104386
3.71726412648247
3.717020605227534
3.716766739591544
3.716505063641551
3.716238343156224
3.715964396895397
3.715683419348045
3.715397074827892
3.715107544532443
3.714817505281538
3.714527363051345
3.714253885334178
3.714005134718643
3.713786072741958
3.71360549075856
3.713475362847938
3.714670759721966
3.863985075243469
5.315709101648862
8.12310373464623
10.27908446975251
13.88770566224187
1142163.814709114
209367.9383225527
72955.30845090303
34975.93957288802
20110.14185499178
13015.86837104348
9180.746557070755
6921.665975901448
5496.520380105499
4536.044201574974
3841.608393732773
3303.173341993215
2861.012491070089
2484.61427194412
2159.436614639536
1878.407460701786
1636.989118612525
1430.512775739982
1254.102502062288
1103.565458978554
975.3053108435736
865.999189073918
772.720792169685
692.7623375097672
623.6080159976439
563.1480957702934
509.7557991176694
462.1683522286799
419.448388778316
380.9424452707482
346.1862754012018
314.7903936930856
286.4169283911906
260.768103277352
237.5786318606049
216.6105134470148
197.6493330785222
180.5014945020693
164.99202944302
150.9627642939587
138.2707158079471
126.7866520857969
116.3938289695746
106.9869719643858
98.47147872298903
90.76268211800163
83.78501885998513
77.47107543263125
71.76061509890019
66.59967206578312
61.93970886458168
57.73679024439762
53.95071881365033
50.54408658895647
47.48121931271381
44.72704406723157
42.24603346849194
40.00156646985067
37.95619783170754
36.07299852889487
34.31669529679174
32.65434733836231
31.04985740930232
29.45957811510359
27.83098970571394
26.10538376383105
24.20981086772611
22.05093012648264
19.44433398081525
16.0062739654736
11.60191885454442
7.137152244691412
4.391916767916612
3.648779604932004
3.556914469702331
3.548614791054335
3.54782985302121
3.547645720776432
3.547497896390364
3.547343038733049
3.547177759183874
3.547001609854446
3.54681440955336
3.5466160656297
3.546406590406676
3.546186097913272
3.545954838312903
3.545713234015104
3.545461366201734
3.545201584166148
3.544936476269811
3.544664127703235
3.544384782852021
3.544100093219287
3.54381220663195
3.543523804415838
3.543235411966438
3.542962853413206
3.542714575353481
3.542496052187594
3.542316858279229
3.542273976906435
3.572381564349229
4.242190464405249
6.353424881878225
8.574045728447665
11.27940724652218
23.2303053010934
1142163.202802163
209364.6047619927
72945.94061794521
34957.4502046631
20080.45201128928
12974.43397856544
9128.910440866088
6862.737528718822
5435.412071088383
4478.376458348716
3792.455202747633
3265.897562071752
2836.671477879685
2472.134063761574
2156.362618566672
1881.82145097414
1644.326247354986
1440.045115262679
1264.779623984126
1114.729870761713
986.4386095817281
876.8941715506155
783.2802827629961
702.9195881150343
633.3255873944131
572.4103802730642
518.5618081387308
470.5085381577776
427.2815846228333
388.2334779589993
352.9177464978358
320.9613395866489
292.0390961399885
265.862574947814
242.1729469786833
220.7363003629322
201.3404152493703
183.792418526668
167.9169539717993
153.5546469078045
140.560736968653
128.8038342035713
118.1648292809764
108.5360013529099
99.82029951328886
91.93066094347661
84.78920412546891
78.32628057476001
72.47950315812113
67.1928396364183
62.41576982696016
58.10246805556577
54.2109704201871
50.7023027542699
47.53957309110687
44.68708348522411
42.10961017923714
39.77211252007439
37.64014301072788
35.68102498872374
33.86462429749217
32.16306158704374
30.54743946828147
28.98242561237108
27.42404144473769
25.820292005106
24.11059729914072
22.21107766576476
19.98934289105134
17.1499276558744
13.27106862986988
8.660333533271585
4.998220122545217
3.6248578659735
3.419503163013179
3.401069264950034
3.399532669616818
3.399297442998075
3.399147491536958
3.398993820179927
3.398830062508645
3.39865558037635
3.398470190629749
3.398273805707682
3.39806642243269
3.397848146514427
3.397619219724533
3.397380056870746
3.397130748605151
3.396873494222981
3.396610736446369
3.396340779665494
3.396063912675079
3.395781774409797
3.395496490185423
3.395210726447097
3.394925076368838
3.394654541342923
3.394407793994257
3.394190414977998
3.394017742782506
3.397432636286962
3.626692348430593
5.01175863694547
6.963236604888552
8.43076610028017
11.27739614352372
19.31142294436061
1142162.67999957
209361.7581043706
72937.92382711057
34941.56982767231
20054.81417018925
12938.38277768245
9083.337604567574
6810.194332008507
5379.886254510556
4424.639142404589
3745.068605341149
3228.205564838078
2810.170574531282
2456.448917405216
2149.748856652772
1881.902776563677
1648.747418311784
1447.096515517354
1273.464364189991
1124.255067810281
996.3159477763453
886.7625193192688
792.9341590927521
712.2640770348905
642.2877716311078
580.9545647598653
526.7056215289714
478.2760711559899
434.6270765278153
395.1176737641492
359.3149153000656
326.8622433309065
297.4476252320139
270.7925139330288
246.6451545125373
224.7763433567203
204.9766499024333
187.054479144686
170.8346004050753
156.1569177239998
142.8753527271263
130.8567956444746
119.9801656974889
110.1356605536462
101.2241544409642
93.15657816682399
85.85312807931743
79.24230658304874
73.25994042731858
67.84826685559618
62.9550833068471
58.53293278041766
54.53829970257167
50.93080486504432
47.67241736540954
44.72675357682351
42.05860362521746
39.63387766629247
37.42011059520627
35.38736614311352
33.50877667491613
31.76006536738006
30.11673647527221
28.55003429315176
27.02307303704424
25.49002821037551
23.89773161542384
22.17610721045522
20.22398066632707
17.83606420259287
14.54643347838062
10.16425226154161
5.889613336407481
3.728559534776912
3.311743174283783
3.272580379532736
3.269546910870152
3.269214994360994
3.269060417711764
3.268907941234477
3.268745863081547
3.268573237641451
3.268389854544761
3.268195614190535
3.267990516338275
3.267774663934246
3.267548292484222
3.267311810982578
3.267065317289035
3.266810884369137
3.266550831124921
3.266283641981348
3.266009641089277
3.265730450032823
3.265448155538145
3.265165410245871
3.264882887578775
3.264614822928336
3.264370037750669
3.264154264067683
3.264234245587775
3.319491724033797
4.067944553243628
5.760415201471594
7.180358140883849
8.406485054886929
11.11847727690193
17.86467218014873
1142162.244781268
209359.3904241121
72931.23982424145
34928.27972650349
20033.24150850858
12907.81719239767
9044.294145884147
6764.533126956901
5330.687562669362
4375.746928449249
3700.342955942882
3190.70527745479
2781.574281662863
2436.923210850791
2138.249522720275
1876.718195879982
1648.024359396198
1449.373628566681
1277.749364361249
1129.82654473759
1002.641299395187
893.474226176692
799.7867530098063
719.1069737324506
649.0268363548091
587.5283600513592
533.1019835857893
484.5245006308132
440.7025165278265
400.9569559925035
364.8653345503591
332.0876177567478
302.3262827412412
275.3147756072435
250.8108415728263
228.5925037540286
208.4555970964351
190.2121768978391
173.689342421061
158.7282569409798
145.1832787478841
132.9211244160997
121.8200959620412
111.7694538393646
102.6689302489875
94.428194612361
86.96609360100896
80.20971756443105
74.09345023481443
68.55807811822962
63.54995385000975
59.02019564587587
54.92391153788869
51.2194538073968
47.86773842913735
44.83170695003445
42.07605330546414
39.56734307766887
37.27454539964505
35.16978189647179
33.22863496511373
31.42940802341174
29.75055047058505
28.16747549285854
26.64865694145017
25.15478877683873
23.63873222936366
22.04325631229298
20.28317379116943
18.20536276395274
15.43827229305476
11.49737907025493
6.966710857255469
3.99943963742661
3.239521806044816
3.160299876529098
3.154389510433872
3.153875687622009
3.153711775625458
3.153560324788343
3.153399988420099
3.153229276450588
3.153047958768956
3.152855943062718
3.152653219223831
3.152439885134152
3.152216171799129
3.151982484495071
3.151738927785247
3.151487467976052
3.151230319347614
3.150966119490386
3.150695224919185
3.150419242824742
3.15014023252844
3.149860845216395
3.149581806749111
3.149316644344862
3.149074578648293
3.148874201713918
3.157429745566092
3.469015646173931
4.747592530844763
6.156600290789744
7.086274731067386
8.439016949333396
11.07026977469842
17.70470020257826
1142161.839560176
209357.19060028
72925.01451027444
34915.8615078779
20012.99505340281
12878.95812372536
9007.131106885023
6720.598135230608
5282.664486993644
4327.113408334179
3654.739003973773
3151.198519493978
2750.087080985347
2414.026331571344
2123.348348326761
1868.482666581697
1644.860004732202
1449.794061123851
1280.648194593189
1134.438269089547
1008.422369631865
900.0681723848414
806.9223246673696
726.5355814233665
656.5397804685715
594.9660216686638
540.3611093759441
491.6230566781218
447.6691747793242
407.7014379638574
371.3098530880064
338.1745047497235
308.0169564984704
280.5874758873314
255.6578785948568
233.0174088242684
212.4703969893381
193.8349000365507
176.9419510790319
161.6350696649072
147.7697622060364
135.2129908866306
123.8426516534189
113.547133524743
104.2249398334339
95.78421300850357
88.14203814846431
81.22358773056659
74.96124783904217
69.29378516971327
64.16555199873595
59.52572251183725
55.32756242755526
51.52775165861209
48.08580679507657
44.96367874792737
42.12561947112844
39.5383912723681
37.17180510041765
34.99938634101682
32.99861342817546
31.14972455734157
29.43340781229012
27.82770395123485
26.30509256985076
24.83074378671668
23.36300882103723
21.85319881168972
20.22989097179569
18.37535280671244
16.01658433762518
12.58591670545581
8.110085961109657
4.455696364644909
3.214549931191838
3.062675151010911
3.05143375649234
3.050591948137963
3.050410777853468
3.050259962846738
3.050101353810901
3.049932567649205
3.049753331635185
3.04956354933544
3.049363209396251
3.049152407916375
3.048931373445145
3.048700509993462
3.048459929475081
3.048211508187625
3.047957372747412
3.047696295119869
3.047428664604147
3.047156081005066
3.04688058516597
3.046604832916219
3.04632961514758
3.046067924708177
3.045829576521129
3.046442676944525
3.142091080459874
3.951822908971105
5.312623281380559
6.28799076933084
7.022316426121798
8.502458421673316
11.16470865181968
18.07665570888631
1142161.448798202
209355.0686064389
72919.00401198452
34903.84592579865
19993.33809015399
12850.80390420481
8970.639193561727
6677.086881401821
5234.582079568258
4277.750904703568
3607.675483867562
3109.609279057049
2716.152310216788
2388.651345618184
2106.256522148951
1858.579141998733
1640.675098728997
1449.846923291358
1283.792445332331
1139.942210793978
1015.663278431202
908.5160328597325
816.1226886375341
736.0436817650265
666.0077301862262
604.1298718774384
549.0577270734918
499.9301875143012
455.7449829667489
415.4715440217855
378.7028733700913
345.1330824370704
314.4998681229357
286.5696905813675
261.1293078066544
237.9808381003183
216.9390735982781
197.8301658349355
180.4910190871575
164.7689969312991
150.5217390843134
137.616974964906
125.932324979515
115.3551244832644
105.7822303102152
97.11967273000751
89.28207499700721
82.19192137773044
75.77879459541387
69.97862962493782
64.73298704127841
59.98834846623802
55.69544414420042
51.80863732265228
48.28542805172197
45.08619919298377
42.17426712578831
39.51635089887463
37.08335229733406
34.85063076794297
32.79726496652417
30.90457930881844
29.15411970502808
27.52527741676562
25.99298368148619
24.5261914035147
23.08824851473212
21.63682788178468
20.11238369965031
18.42051784998785
16.36255528941179
13.41757896585603
9.211523140995839
5.080360621721061
3.253496762985305
2.979436267680891
2.958694207720506
2.95727894485905
2.957067467529442
2.956916609208436
2.956759659489207
2.95659275764999
2.956415556937915
2.956227959578222
2.956029955162207
2.955821639199151
2.955603239177456
2.955375159531455
2.955137519739942
2.95489211879418
2.954641008544487
2.954383079523205
2.954118752299145
2.953849622718102
2.95357771694104
2.953305700242386
2.953034428643833
2.952776218356352
2.952579967871154
2.972024240055753
3.376422229156366
4.541155070354855
5.594419882478982
6.258820351788187
7.039636975247113
8.615768171644429
11.45365582479671
19.19599109880846
1142161.110827042
209353.2271785855
72913.79596652988
34893.43422064481
19976.28746996999
12826.3400522139
8938.857663036748
6639.093113670473