/*--------------------------------*- C++ -*----------------------------------*\
| =========                 |                                                 |
| \\      /  F ield         | OpenFOAM: The Open Source CFD Toolbox           |
|  \\    /   O peration     | Version:  v1812                                 |
|   \\  /    A nd           | Web:      www.OpenFOAM.com                      |
|    \\/     M anipulation  |                                                 |
\*---------------------------------------------------------------------------*/
FoamFile
{
    version     2.0;
    format      ascii;
    class       volScalarField;
    location    "0.00000106";
    object      p;
}
// * * * * * * * * * * * * * * * * * * * * * * * * * * * * * * * * * * * * * //

dimensions      [0 2 -2 0 0 0 0];


internalField   nonuniform List<scalar> 
44064
(
0.07032888665973061
0.07032863055756472
0.07032836638474285
0.07032812622897627
0.07032793197258592
0.07032783040536331
0.07032788103219687
0.0703281388718385
0.07032863310781082
0.07032931693477125
0.07033009936610067
0.07033096886496051
0.07033195920458164
0.07033306881364683
0.07033428144064399
0.07033557972491554
0.07033694682842927
0.07033836595105566
0.0703398204812837
0.07034129438010628
0.07034277247454757
0.07034424062332777
0.07034568575104985
0.07034709574087827
0.07034845919291216
0.07034976507052701
0.0703510022701771
0.07035215915964363
0.0703532231148008
0.0703541800671854
0.07035501407798125
0.07035570695712889
0.07035623794856921
0.0703565835585913
0.07035671775401341
0.07035661298221876
0.07035624268307353
0.0703555859104073
0.07035463368856276
0.0703533929549775
0.07035187287551832
0.07035002419318163
0.07034764593842484
0.07034448792077277
0.07034051847117516
0.07033585183935558
0.070330485699098
0.07032431179947683
0.07031724930744868
0.07030928813314627
0.07030044210816494
0.07029071368449531
0.07028009592485815
0.07026856492353056
0.07025606650236707
0.07024250131913548
0.07022774242104009
0.0702116184007877
0.07019382304827815
0.07017439552427084
0.0701566667367365
0.07014070282625537
0.0701235665107858
0.07010343381481156
0.07007939569836497
0.07005209874640496
0.070022536244693
0.06999155858093625
0.06995864656661059
0.06992281922302983
0.06988402358297749
0.0698423563549822
0.06979754013028924
0.0697493151036804
0.06969750304637121
0.06964191458863167
0.06958234746985538
0.06951860779821994
0.06945050931085889
0.06937787625179817
0.06930054820079176
0.06921838520984987
0.0691312736275687
0.06903913278214184
0.0689419225735653
0.06883965214791589
0.06873238975017655
0.06862027111682586
0.06850353170242501
0.0683824359973207
0.06825714286004732
0.0681280143906175
0.06799577687663873
0.0678613144444333
0.06772571976883521
0.06759033250940714
0.06745657089939504
0.06732801811368777
0.06721036247463751
0.06710813459833588
0.06702604337827146
0.06697000794935848
0.06694752289425164
0.06696824092852129
0.06704494543933721
0.06719618735196592
0.06744585892627566
0.06771900505854656
0.06350295360596933
0.06350297859095574
0.06350300650409821
0.06350303369566561
0.06350306175096143
0.0635030928219377
0.06350312955254966
0.06350317541603689
0.06350323458493877
0.06350331184652162
0.06350341298024674
0.0635035390704488
0.06350368674781715
0.06350385841431211
0.06350405991256272
0.06350429483424634
0.06350456563514317
0.06350487458614226
0.06350522396979107
0.06350561613707217
0.06350605363175139
0.06350653934673914
0.06350707661850211
0.06350766906899724
0.063508320079756
0.06350903284155802
0.06350981181988737
0.06351066313166934
0.06351159356015444
0.0635126103253439
0.06351372106860673
0.06351493385327016
0.0635162571864248
0.06351770009552112
0.06351927227572669
0.06352098429016061
0.06352284775806687
0.0635248753963816
0.06352708069550946
0.06352947701657516
0.0635320761686696
0.06353488759396669
0.0635379211054992
0.06354119361970861
0.06354472316889873
0.06354851433370214
0.06355256757586827
0.06355690850018417
0.0635615974087103
0.06356671867471245
0.06357238709273838
0.06357874232456734
0.06358591675215933
0.06359393722519693
0.06360260735139001
0.06361170025644178
0.06362137183753191
0.06363209828958385
0.06364433257274738
0.06365767416571459
0.06366843797391827
0.06367668227510753
0.06368557435380344
0.06369691198740052
0.06370991774649432
0.0637240889888675
0.06374023516776442
0.06375770096201504
0.06377596108450691
0.06379541111865894
0.0638164025287732
0.06383890301647246
0.06386288904324927
0.06388844613588665
0.06391563939385461
0.06394449673023318
0.06397503332517804
0.06400725308699726
0.06404113874246192
0.0640766488440845
0.06411371509507131
0.06415223866694794
0.0641920868500566
0.06423309026682242
0.06427504078004329
0.06431769052010884
0.06436075370612182
0.06440390150815445
0.06444678690557508
0.06448911052718492
0.0645306202227722
0.06457109944522184
0.0646103099477168
0.06464800578597603
0.06468406226591866
0.06471860725538943
0.06475153501231103
0.06478174094779872
0.06480712780954162
0.06482608001943843
0.06483805605645827
0.06484253625428119
0.06483842523654601
0.06482366093112164
0.0647935845563852
0.06473842223169174
0.06466505782741522
0.06447423777455046
0.0620198562135672
0.06201986820738154
0.06201988175855287
0.06201989507815361
0.06201990871601229
0.06201992340053142
0.0620199399814029
0.06201995958108242
0.06201998355213267
0.06202001334355162
0.06202005026931679
0.06202009499367982
0.06202014758139986
0.0620202079990771
0.06202027729703491
0.06202035730202262
0.06202044917790933
0.06202055378376821
0.06202067197345419
0.06202080470159783
0.06202095308136087
0.06202111828555461
0.06202130071998681
0.0620214979405487
0.06202170447450985
0.06202191917336224
0.06202214825065326
0.06202239728392046
0.06202266877678419
0.06202296507151299
0.06202328893168202
0.06202364344421239
0.06202403194955738
0.06202445803409682
0.06202492551243884
0.06202543837276666
0.06202600067397741
0.06202661637686899
0.06202728908461134
0.0620280216951978
0.0620288161044146
0.06202967316226472
0.06203059171331098
0.0620315615511815
0.06203255881726493
0.06203356340723942
0.06203457477966925
0.06203559905954043
0.06203663234097039
0.06203765154089389
0.06203860901313915
0.0620394408604627
0.06204009555667876
0.06204057779908365
0.0620409236317037
0.06204121103999161
0.06204158342471325
0.06204209885033451
0.06204253892037323
0.06204269162739785
0.06204253798313225
0.06204228623169478
0.06204201760034211
0.06204203318816251
0.0620437560430248
0.06204668646733392
0.06204841313646803
0.0620489518362424
0.06205010443560776
0.06205202933644316
0.06205395645981444
0.06205596520320112
0.0620581996934822
0.06206074046447124
0.06206361736044579
0.06206687651464247
0.06207058418923366
0.06207481584731658
0.06207965585762212
0.06208520104067211
0.06209156166482237
0.06209886168024008
0.0621072390577364
0.0621168455910128
0.06212784586786819
0.06214041456580312
0.06215473618262402
0.06217099352540392
0.06218934283268557
0.06220998050384997
0.06223317357907152
0.06225904340291596
0.06228748682433444
0.0623182800102447
0.06235105086421614
0.0623854031394092
0.06242085735158116
0.06245617108160103
0.06248948179720656
0.06251939015397089
0.06254460058007222
0.06256324259796821
0.06257323115028353
0.06257272079413112
0.06256119459055495
0.06253491705940752
0.06249497491698292
0.06194012888541121
0.06116491446823932
0.06116492362434916
0.06116493398645956
0.06116494419151412
0.0611649546253985
0.06116496575436833
0.06116497806736818
0.06116499218800718
0.0611650088472281
0.06116502881203685
0.06116505282993191
0.06116508155215284
0.06116511535338957
0.06116515450731805
0.06116519901819597
0.06116524935324838
0.06116530667376539
0.0611653717056671
0.06116544496501586
0.06116552698378314
0.06116561837228952
0.06116571961508608
0.06116583007289233
0.06116594636447057
0.06116606527654538
0.06116618947641445
0.06116632366787188
0.06116646971086923
0.0611666286790541
0.06116680177838184
0.06116699033973892
0.06116719578337826
0.06116741961564713
0.06116766343267432
0.06116792892046669
0.06116821785148004
0.0611685320785834
0.0611688735272039
0.06116924418854886
0.06116964612074161
0.06117008146155876
0.06117055242412173
0.06117106122863838
0.06117161028814659
0.0611722041088929
0.06117285076653294
0.06117355903944949
0.06117433636657316
0.06117519042203783
0.06117612966595759
0.06117716191120037
0.06117828300330218
0.06117945901750382
0.06118064489257875
0.06118181383373028
0.06118294525776208
0.06118400525201367
0.06118497510434534
0.06118592136926675
0.0611869974103833
0.06118822098857059
0.06118939207428493
0.06119045964842024
0.06119149351753735
0.06119272961845466
0.06119429020649752
0.0611964468028604
0.06119877311131846
0.0612005221829937
0.06120232824952926
0.06120461924383719
0.06120704463721385
0.06120963256044079
0.06121239937025479
0.0612153270188457
0.06121841701652974
0.06122167358084001
0.06122509373025162
0.06122867186730032
0.06123240120908732
0.06123627256005866
0.06124027391829494
0.06124439051420427
0.06124860464420973
0.06125289562472335
0.06125723810940752
0.06126160479925864
0.06126596811143162
0.06127027047810247
0.06127444401911546
0.06127847508194436
0.06128233749202839
0.06128597006813952
0.06128936042920689
0.06129238793586309
0.06129489855256886
0.06129692022960141
0.06129822785794396
0.06129840637067605
0.06129739288654804
0.06129496690678374
0.06129048480162302
0.06128304013367308
0.06127085485352848
0.06125220608685913
0.06123314758200569
0.06130942266493286
0.05954361145458816
0.06024678187431469
0.06024678953592694
0.06024679820615865
0.06024680673963115
0.0602468154449559
0.06024682468608368
0.06024683483802715
0.06024684638748244
0.06024685990943343
0.06024687599421827
0.0602468951889403
0.06024691796214682
0.06024694463060868
0.06024697513734471
0.06024700946014065
0.06024704800818141
0.06024709136415456
0.06024714005509056
0.06024719439223824
0.06024725463297408
0.06024732106594595
0.06024739386725347
0.06024747233521978
0.06024755370874092
0.06024763569775608
0.06024772028472812
0.06024781061304788
0.06024790793042555
0.06024801294725014
0.06024812644470601
0.06024824927297567
0.06024838234289508
0.06024852663381151
0.06024868320113835
0.06024885318264882
0.06024903780446379
0.06024923838676186
0.0602494563488466
0.06024969321317081
0.06024995060801845
0.06025023026858118
0.06025053403512611
0.06025086384402102
0.06025122170621901
0.0602516096760959
0.06025202983204804
0.06025248430112234
0.06025297527913909
0.0602535046635632
0.06025407338019244
0.06025468082402807
0.0602553251694072
0.0602560107423413
0.06025675877399953
0.06025759733584733
0.06025852856538089
0.06025951390886569
0.06026052467927032
0.06026157734296442
0.06026266360444872
0.06026378023652004
0.0602650057930268
0.06026631329184368
0.06026757531113337
0.06026879614136193
0.06027005425352235
0.06027155988508678
0.06027330987249929
0.0602753452929938
0.06027721388718631
0.06027907655302708
0.06028137666176649
0.06028385097739297
0.06028651972124312
0.06028941188826731
0.06029254504064584
0.06029593474380503
0.06029959499412221
0.06030353999797441
0.06030778326869495
0.0603123361212145
0.06031720714862065
0.0603224014946615
0.06032791967348808
0.06033375696744108
0.06033990064360933
0.06034632910074508
0.06035301969676837
0.06035993048154733
0.06036699485565761
0.06037415724644918
0.06038133454430479
0.06038840794199331
0.06039530984190666
0.06040192521670354
0.06040803423843986
0.0604134861957281
0.06041793657485064
0.06042083842507391
0.06042172037420376
0.06041973441681876
0.0604136852523643
0.06040230897397064
0.06038298918431806
0.06034727861523213
0.06028860629852044
0.06071950860200596
0.05647817024514705
0.05937723910002059
0.05937724612618751
0.05937725407680305
0.05937726189698955
0.05937726985409367
0.05937727824669968
0.05937728736077351
0.05937729756781817
0.05937730931474135
0.05937732306677707
0.0593773392586984
0.05937735826543318
0.05937738035730503
0.05937740560269941
0.05937743421787994
0.05937746630111454
0.05937750203364592
0.05937754201712396
0.05937758657789464
0.05937763589788227
0.05937769013383332
0.05937774926345631
0.05937781235369008
0.05937787671758844
0.05937794044821519
0.05937800532509138
0.05937807358636298
0.05937814579483154
0.05937822234692879
0.05937830372225101
0.059378390413177
0.05937848291838146
0.05937858176590192
0.0593786875199102
0.05937880078358156
0.05937892220353051
0.05937905247583417
0.05937919235331367
0.05937934265428113
0.05937950427326538
0.05937967819436741
0.05937986550753547
0.05938006742665988
0.05938028530623973
0.05938052065180985
0.05938077512054073
0.05938105051171813
0.05938134874788446
0.05938167184901055
0.05938202191941341
0.05938240120615099
0.05938281234918841
0.05938325882443379
0.05938374481562696
0.05938427484755177
0.05938485673861425
0.05938551875824223
0.0593863135113767
0.05938724508450597
0.0593882713429332
0.05938940441100099
0.05939064726922431
0.05939193165191006
0.05939322105608109
0.05939449244995056
0.05939575564869051
0.05939707027146614
0.0593984597355851
0.05940010330242462
0.05940208044755046
0.05940409456402538
0.05940608183900133
0.05940823354109083
0.05941062571675924
0.05941322611607688
0.05941604897950122
0.05941912172531287
0.05942246579829832
0.05942610511864713
0.05943006635015893
0.05943437804751621
0.0594390711260838
0.05944417896878593
0.05944973704204749
0.05945578346950216
0.05946235794958028
0.05946949869181697
0.05947724999215847
0.05948565393452921
0.05949474014723631
0.0595045473197162
0.0595150977094186
0.05952637746985025
0.05953839230353603
0.05955111463911698
0.05956445313877669
0.05957839019935897
0.05959281024174209
0.0596074899206445
0.05962230337796778
0.05963692068299734
0.05965059561819042
0.05966295870381366
0.05967602869839637
0.05967564265905932
0.0595484353687063
0.06087489038231916
0.05209812220629828
0.05863428862571148
0.05863429497331545
0.05863430215596789
0.05863430921845645
0.05863431639519127
0.0586343239413137
0.05863433209405351
0.05863434116743856
0.05863435155081689
0.05863436366114037
0.05863437789679728
0.05863439461179162
0.05863441410401811
0.05863443657215379
0.05863446200326519
0.05863449066270319
0.05863452279703621
0.05863455852012618
0.05863459824268784
0.05863464215324028
0.05863469030817688
0.05863474257836255
0.05863479800245481
0.05863485397355846
0.05863490875793177
0.05863496391338277
0.05863502122126642
0.05863508109632183
0.05863514382453351
0.05863520975340122
0.05863527921183665
0.0586353525049199
0.05863542994342894
0.0586355118483863
0.0586355985495007
0.05863569038492017
0.05863578770217165
0.05863589085985747
0.05863600023052443
0.05863611620561898
0.05863623920379851
0.05863636968390044
0.05863650816299877
0.05863665523838977
0.05863681161184617
0.05863697811674567
0.05863715575243769
0.05863734573200963
0.05863754954870353
0.05863776906595149
0.05863800664142199
0.05863826530987232
0.05863854904722689
0.05863886303464498
0.05863921358798885
0.0586396085217496
0.05864005703880865
0.05864056886704873
0.05864116087026322
0.05864188401315944
0.05864277452461516
0.05864382131595738
0.05864500198624164
0.05864621805323346
0.05864738450909456
0.05864855231205497
0.05864977740097105
0.05865105349900555
0.05865241895023217
0.05865400493386973
0.0586552444697045
0.05865663124271218
0.05865873613656691
0.05866096307332503
0.05866335958259081
0.05866598559517438
0.05866885997806539
0.05867200243860688
0.05867544032943012
0.05867920366861791
0.05868332513356095
0.05868784130228195
0.05869279311277974
0.05869822602175161
0.05870419128744469
0.0587107471243929
0.05871795622820441
0.05872589278001439
0.05873464146452159
0.05874429066102881
0.05875495144348344
0.05876674910534025
0.05877980979837778
0.05879430408978687
0.05881042025454528
0.05882834400055215
0.05884837726736808
0.05887083872959501
0.05889607186959284
0.05892462117452889
0.05895716631014786
0.05899422764685316
0.05903503875016747
0.0590896784143734
0.05919021277487633
0.05886787581485288
0.06163342036536139
0.04727041012333465
0.05793786202128922
0.05793786806938519
0.05793787491309256
0.05793788164048368
0.0579378884684134
0.05793789562519904
0.05793790331230977
0.05793791179788037
0.0579379214223875
0.05793793255980825
0.05793794557572869
0.05793796079851926
0.05793797850344522
0.05793799888982938
0.05793802202519106
0.05793804793995259
0.05793807656445678
0.05793810803122573
0.05793814270589262
0.05793818068339443
0.05793822192259073
0.05793826615843479
0.05793831223767037
0.05793835770910538
0.05793840141973336
0.05793844485938
0.05793848928931497
0.05793853496951748
0.05793858210843983
0.05793863095796692
0.05793868172534916
0.0579387345814315
0.05793878969875201
0.05793884725755366
0.05793890744496903
0.05793897045592176
0.05793903649527009
0.05793910578060144
0.05793917854613676
0.05793925504873858
0.05793933557738878
0.05793942046759671
0.05793951012140496
0.05793960503214929
0.05793970581273056
0.05793981322845614
0.05793992823915581
0.0579400520569742
0.05794018622522024
0.0579403327226472
0.0579404940982668
0.05794067364294025
0.05794087560591137
0.05794110547568053
0.05794137036108153
0.05794167943475501
0.05794204387473843
0.05794247662823646
0.05794299092772721
0.05794360035427721
0.0579443336034679
0.05794524034249905
0.05794631247287172
0.05794745219364708
0.05794862857959642
0.05794988571876861
0.05795123101216548
0.05795266522340005
0.05795416585412047
0.05795584058737099
0.05795799122618543
0.05796022979396341
0.05796233329671673
0.05796463598777954
0.05796717647219705
0.05796996939710437
0.05797301948278025
0.05797635594414132
0.05798001030340511
0.05798401471450945
0.05798840546361489
0.05799322369954335
0.05799851584650192
0.0580043342146929
0.05801073831143009
0.05801779724904105
0.05802558825381405
0.05803420261510019
0.05804374847814646
0.05805434706323294
0.05806614906713945
0.0580793366931234
0.05809411816305536
0.0581107676561878
0.05812962494481082
0.05815108610250142
0.05817571846669059
0.05820423823209449
0.05823757483868768
0.05827705894103623
0.05832471068857862
0.05838422842839105
0.05845526024602497
0.05853565584431895
0.05879276538651753
0.05846614687760429
0.06202750558018776
0.04346267459637417
0.05726755004136021
0.05726755574788833
0.05726756220504675
0.05726756855118116
0.05726757498650172
0.0572675817163452
0.05726758891397785
0.05726759681142828
0.05726760571056389
0.05726761595195387
0.05726762787731541
0.05726764180008696
0.05726765798829105
0.0572676766476366
0.05726769786263815
0.05726772148373024
0.05726774768808678
0.05726777665480158
0.05726780831762553
0.05726784286148028
0.05726788026571258
0.05726792018227127
0.05726796140425865
0.05726800173112105
0.05726804025507814
0.05726807813500109
0.05726811624244776
0.05726815473003141
0.0572681937365076
0.05726823341702636
0.05726827385202016
0.0572683150653694
0.05726835706607195
0.05726839985404258
0.057268443418834
0.05726848774035916
0.05726853279108909
0.05726857853900448
0.05726862495181813
0.05726867200354769
0.05726871968453705
0.05726876801494016
0.05726881706313524
0.0572688669716159
0.05726891798575626
0.05726897048758798
0.05726902503984054
0.05726908244651828
0.05726914383532723
0.05726921076600523
0.05726928536956388
0.05726937052513856
0.05726947008159963
0.05726958912747122
0.05726973430353853
0.05726991413967834
0.05727013936622206
0.0572704229794829
0.05727077913534197
0.05727122147718345
0.05727176267714623
0.05727241427945223
0.05727318467727013
0.05727407671580094
0.05727509031732581
0.05727622334956195
0.05727746937114875
0.05727882383015857
0.05728027037929362
0.05728178062155059
0.05728356792942674
0.05728504623165823
0.05728651351253105
0.05728869314746728
0.0572911039591249
0.0572937008671008
0.05729654331880777
0.05729966165317309
0.05730308131398028
0.05730683290969798
0.05731095164895371
0.05731547674661625
0.05732045219991225
0.05732592749055668
0.05733195828957688
0.05733860885304663
0.05734595072989184
0.0573540667162155
0.05736305400789828
0.05737302082701246
0.05738409745692995
0.05739643966247789
0.05741022278198602
0.05742566878899385
0.05744305145702377
0.05746268010043071
0.05748497799071579
0.05751045881211014
0.05753980922637762
0.05757387428693084
0.05761347014063642
0.05766242111344824
0.0577250087419424
0.05775009159516287
0.0579489409473936
0.05766522840954709
0.06109173819922827
0.0432417569231601
0.05660703964653572
0.05660704490921966
0.05660705086399789
0.05660705671533809
0.05660706264468456
0.05660706883392479
0.05660707543013849
0.05660708263133931
0.05660709070172398
0.05660709994886735
0.05660711069308377
0.05660712324116929
0.05660713786801864
0.05660715480142741
0.05660717419679644
0.05660719609868824
0.056607220564067
0.05660724752150066
0.0566072770167835
0.05660730932037394
0.05660734438400043
0.05660738180491513
0.05660742038957371
0.0566074582211055
0.05660749461439136
0.05660753044467039
0.05660756628757956
0.0566076022261046
0.05660763836405107
0.05660767480534232
0.05660771155613647
0.05660774855137198
0.0566077856972063
0.05660782287630262
0.05660785994529229
0.05660789673435161
0.05660793304815811
0.05660796866745243
0.05660800335158233
0.05660803684274162
0.05660806887303952
0.05660809917722821
0.05660812751181589
0.05660815367461063
0.05660817752761894
0.05660819902550231
0.05660821825432625
0.05660823548714482
0.05660825126189648
0.05660826648629076
0.056608282575822
0.0566083016333145
0.05660832667920001
0.05660836193842747
0.05660841317788053
0.05660848805979068
0.05660859642640807
0.05660875036765623
0.0566089639092348
0.05660925231488475
0.05660963106787376
0.05661011440855118
0.05661071359494121
0.05661143576815515
0.05661228382323293
0.05661325707012411
0.05661435171155328
0.05661556354167667
0.05661688644944737
0.05661826300509487
0.05661979072310162
0.05662172306934706
0.05662393537063769
0.05662603270657
0.05662807060337404
0.05663032137464152
0.05663278971718663
0.05663547513310217
0.05663839897480091
0.05664158395199512
0.0566450536696189
0.05664883372291592
0.05665295212155671
0.05665743955967269
0.05666232895884515
0.0566676569569555
0.05667346191248638
0.0566797851181917
0.05668667193872578
0.05669416652335393
0.05670231547246907
0.05671116642444524
0.0567207552336642
0.05673111217463764
0.05674225338385378
0.05675413946016739
0.05676669442511384
0.05677967639863506
0.05679265267067313
0.05680496336912853
0.05681405878647112
0.0568170061594688
0.05682492251683896
0.05675979723109002
0.0567604911673607
0.05639059743818193
0.05852929607341081
0.046288868589265
0.05598345291134653
0.05598345773755085
0.05598346319833351
0.05598346856352725
0.05598347399752755
0.05598347966258678
0.05598348568607439
0.05598349224072249
0.05598349956239198
0.05598350793345897
0.05598351765768607
0.05598352903664859
0.05598354235173837
0.05598355785134956
0.0559835757337592
0.05598359609071661
0.05598361878864445
0.05598364388800928
0.05598367159256883
0.05598370192760681
0.05598373488874667
0.0559837701383759
0.05598380656647053
0.05598384248054206
0.0559838773327531
0.055983911855719
0.05598394647164455
0.05598398121230207
0.0559840161654359
0.05598405142898421
0.05598408698711753
0.05598412274207979
0.05598415855821206
0.05598419426704469
0.05598422966314103
0.05598426450196565
0.05598429849916207
0.05598433133037536
0.05598436263194907
0.0559843920033383
0.05598441901288508
0.05598444320905326
0.05598446413560136
0.05598448134726027
0.0559844944257709
0.05598450300376775
0.05598450679782761
0.05598450565631223
0.05598449962816138
0.0559844890574363
0.05598447471005145
0.05598445794139015
0.05598444091359484
0.05598442686747621
0.05598442044340262
0.05598442802300101
0.0559844580244214
0.0559845210359152
0.05598462965368648
0.05598479795599176
0.05598504065770214
0.05598537213810319
0.0559858053103941
0.05598635026751365
0.05598701313156347
0.05598779563792682
0.05598869495596311
0.05598970560438868
0.0559908275350629
0.05599204731803635
0.05599329100767968
0.05599468053436477
0.05599582036609723
0.05599695277339003
0.05599866193186636
0.05600052277539065
0.05600252591770778
0.05600470399565853
0.0560070729630078
0.0560096473416007
0.05601244378180471
0.05601548022525015
0.05601877547421392
0.05602234913156844
0.05602622128907732
0.05603041347688101
0.05603494675142803
0.05603984194048107
0.05604512042508421
0.05605079976885272
0.05605689538263119
0.05606342007008165
0.05607037472576498
0.05607775190020643
0.05608553493532113
0.05609366966716466
0.05610211973393968
0.05611082627422043
0.05611966960704406
0.05612905983161942
0.05613883932650344
0.05614386088598182
0.05617005333549755
0.05617028597583749
0.05614360262708844
0.05593456508478824
0.05793734457803494
0.04575030216626559
0.0553955836717792
0.05539558814230956
0.05539559320059087
0.05539559816980461
0.05539560320055545
0.05539560843908974
0.05539561399614672
0.05539562002192258
0.05539562672511568
0.05539563436110592
0.05539564321160705
0.05539565356430132
0.05539566569621518
0.05539567986017932
0.05539569626611702
0.05539571503583567
0.05539573613440908
0.05539575967846582
0.05539578565290817
0.05539581396084786
0.05539584476165053
0.05539587776891634
0.05539591188966884
0.05539594564426098
0.05539597868957462
0.05539601166071519
0.05539604480329974
0.05539607808866798
0.05539611157177368
0.05539614532019604
0.05539617928548886
0.05539621333303172
0.05539624728451688
0.05539628092451916
0.05539631399686525
0.05539634620312112
0.05539637720302662
0.05539640661517039
0.0553964340157458
0.0553964589432703
0.05539648090589314
0.05539649938991352
0.05539651387073221
0.05539652382903137
0.05539652877170728
0.05539652825148032
0.05539652189473537
0.05539650944574453
0.05539649083076613
0.05539646624552205
0.05539643627199831
0.05539640203245337
0.05539636538811335
0.05539632918607935
0.05539629754791628
0.05539627617338152
0.05539627260161081
0.05539629634006599
0.05539635876805659
0.05539647277666778
0.05539665217350834
0.05539691096869729
0.05539726260007653
0.05539771890476028
0.05539828900926774
0.05539897839489297
0.05539978820960965
0.05540071556740492
0.05540175834888607
0.05540292204616887
0.05540414256459962
0.05540545598607002
0.05540699831662771
0.05540860887888614
0.0554102032889492
0.05541188674767403
0.05541368799263334
0.05541564550381897
0.05541777057942744
0.05542007557527058
0.05542257555207815
0.05542528610184232
0.05542822405884775
0.05543140787548842
0.05543485650559032
0.05543859072994348
0.05544263219454739
0.05544700388937475
0.05545173162873175
0.05545684197751536
0.05546236466483195
0.05546833515386904
0.05547479180819513
0.05548178267837561
0.05548937751560289
0.05549764480413025
0.05550670037073512
0.05551671150650189
0.05552775424301488
0.05554060608821579
0.05555747740687943
0.055569282832969
0.05559121245752453
0.05560463369721599
0.05550881781228247
0.05528028688209849
0.05719419709228847
0.04544906631784165
0.05484340582784626
0.05484341011058509
0.05484341495635676
0.05484341971642093
0.05484342453389542
0.0548434295461892
0.05484343485474596
0.05484344059756564
0.05484344696964683
0.05484345421465422
0.05484346260799307
0.05484347243863213
0.0548434839926461
0.05484349753730586
0.05484351330205729
0.05484353145118281
0.05484355203785767
0.05484357496832248
0.05484360010133882
0.0548436275555312
0.05484365751578812
0.05484368961040526
0.05484372268187882
0.05484375529443584
0.0548437871369863
0.05484381876284104
0.05484385030801231
0.05484388167301927
0.05484391279617841
0.05484394364807472
0.05484397413155953
0.05484400405600919
0.05484403318679378
0.05484406126023693
0.05484408798210862
0.05484411302626236
0.05484413603315973
0.05484415661126748
0.05484417434410839
0.05484418879209541
0.05484419949732984
0.05484420599109615
0.0548442078023134
0.05484420446669159
0.05484419553843432
0.05484418060092885
0.0548441592870943
0.05484413131532017
0.05484409654352671
0.05484405504502184
0.05484400721216788
0.05484395389531358
0.05484389658369779
0.05484383763071488
0.05484378051563518
0.05484373011582069
0.05484369294000584
0.05484367725431864
0.0548436930324243
0.05484375168736366
0.05484386559506515
0.0548440475383057
0.0548443101427822
0.05484466521089323
0.05484512280833703
0.05484569016834689
0.0548463706381628
0.05484716236523633
0.05484806028895956
0.05484907161155757
0.05485019182511183
0.05485130922121984
0.05485245960510729
0.05485383814569333
0.05485528888160564
0.05485681331791024
0.05485850327116115
0.05486034399851532
0.05486233607420212
0.05486449367373137
0.05486683015319051
0.05486935805661083
0.05487209034276806
0.05487504067171352
0.05487822291258027
0.05488165188703669
0.05488534229846014
0.05488930876250182
0.05489356674226967
0.05489813082267354
0.05490301581456012
0.05490823835930711
0.05491381466189873
0.05491976255706185
0.05492611463368671
0.05493290079465429
0.05494018137818191
0.0549480894449489
0.05495653259706194
0.05496495350119785
0.05497690510772357
0.05498032919869524
0.05499285337803661
0.05497629617761846
0.05480489241119488
0.05459103013353125
0.05635037446034763
0.04595149536916503
0.05431628321072068
0.05431628760863153
0.05431629258461747
0.05431629747211716
0.054316302416852
0.05431630755683198
0.0543163129903363
0.05431631885030698
0.05431632532655006
0.05431633265939746
0.05431634112418881
0.05431635101319333
0.05431636261778945
0.05431637621031647
0.05431639202332648
0.05431641021844891
0.05431643081369415
0.05431645356108373
0.05431647841282056
0.05431650556769319
0.05431653498590353
0.05431656609777408
0.05431659736671051
0.05431662735288529
0.05431665609847491
0.05431668418894441
0.05431671168026967
0.05431673839562063
0.05431676410435277
0.05431678868197323
0.05431681202374017
0.05431683390647511
0.05431685406874062
0.05431687224296614
0.05431688815675111
0.05431690153300781
0.05431691209444851
0.05431691956763162
0.0543169236885158
0.05431692420724463
0.05431692089257377
0.05431691353767336
0.05431690196604438
0.05431688603508154
0.05431686563441666
0.05431684069069476
0.05431681118062519
0.05431677715609757
0.0543167387854936
0.05431669641578467
0.05431665066177557
0.05431660252992188
0.05431655358319761
0.05431650614990424
0.05431646357076331
0.05431643046182925
0.05431641294706249
0.05431641878250659
0.05431645727233394
0.05431653895193072
0.05431667517466972
0.05431687778398501