/*--------------------------------*- C++ -*----------------------------------*\
| =========                 |                                                 |
| \\      /  F ield         | OpenFOAM: The Open Source CFD Toolbox           |
|  \\    /   O peration     | Version:  v1812                                 |
|   \\  /    A nd           | Web:      www.OpenFOAM.com                      |
|    \\/     M anipulation  |                                                 |
\*---------------------------------------------------------------------------*/
FoamFile
{
    version     2.0;
    format      ascii;
    class       surfaceScalarField;
    location    "0.00000106";
    object      phi;
}
// * * * * * * * * * * * * * * * * * * * * * * * * * * * * * * * * * * * * * //

dimensions      [0 3 -1 0 0 0 0];
oriented        oriented;


internalField   nonuniform List<scalar> 
87612
(
1.569767092750772e-06
3.203780832713468e-08
3.086560982032077e-06
9.657880027920225e-08
4.559689734028222e-06
1.634630538220406e-07
5.996783824108882e-06
2.345358418192535e-07
7.404055350435773e-06
3.114685770144799e-07
8.786851354464086e-06
3.954665326685649e-07
1.015051961394628e-05
4.869588268126009e-07
1.150131827554329e-05
5.855576872988576e-07
1.28469209711531e-05
6.904667415908963e-07
1.419626969703182e-05
8.01137725618153e-07
1.555853052389259e-05
9.181728524393865e-07
1.694254410762053e-05
1.042835979875053e-06
1.835665562860949e-05
1.176679957708329e-06
1.980869828556455e-05
1.321400710942513e-06
2.130623546997777e-05
1.478587107283828e-06
2.285660544187124e-05
1.649927983804928e-06
2.44669445844501e-05
1.837244136722174e-06
2.614421000531066e-05
2.042500667339035e-06
2.789520059992924e-05
2.267821416379684e-06
2.972657371578819e-05
2.515507557739398e-06
3.164485547732326e-05
2.788059535464965e-06
3.365644380305608e-05
3.088201479165853e-06
3.576760372988395e-05
3.418907646472528e-06
3.798445484303192e-05
3.78343083505011e-06
4.031295051737353e-05
4.185333012059076e-06
4.275884838333015e-05
4.628518613840592e-06
4.532767110049197e-05
5.117271019539136e-06
4.802465635341825e-05
5.656292567471474e-06
5.085469480790643e-05
6.250748492511806e-06
5.382225454778196e-05
6.906315246125852e-06
5.693129034033689e-05
7.629233605444035e-06
6.018513591749385e-05
8.426367019840287e-06
6.358637735613324e-05
9.305265598358865e-06
6.713670567368957e-05
1.027423600944212e-05
7.083674730904749e-05
1.134241713264212e-05
7.468587296668187e-05
1.251985999436505e-05
7.868198953053463e-05
1.381760822414525e-05
8.282132814460068e-05
1.524777106293379e-05
8.709825436956937e-05
1.682357664503058e-05
9.150513698257901e-05
1.855939539798919e-05
9.603229857532831e-05
2.047074761624731e-05
0.0001006679838044312
2.25743831108984e-05
0.000105398049459056
2.488866534437337e-05
0.0001102046794624761
2.743466187257396e-05
0.000115065079037342
3.023629080113565e-05
0.0001199514597748029
3.331916665153711e-05
0.0001248309320982111
3.67108418925911e-05
0.0001296645227656713
4.044184402953585e-05
0.0001344061999841356
4.454584452753149e-05
0.0001390027167408251
4.905903278231396e-05
0.0001433947451642191
5.401903432859683e-05
0.0001475194339666272
5.946371557458657e-05
0.0001513148703662363
6.542952733239265e-05
0.0001547266836632846
7.194963318194661e-05
0.000157712605001335
7.905624723894213e-05
0.000160236972105801
8.679100925553501e-05
0.0001622642681980694
9.520629878772253e-05
0.0001637682823163574
0.000104349993211701
0.0001647430803317591
0.0001142640698746149
0.0001652084131034847
0.0001249906186782812
0.0001652127704492789
0.0001365746855642218
0.0001648145443358505
0.0001490866962633956
0.0001640910852314284
0.0001625951431644558
0.0001631414086412122
0.0001771735667402596
0.000162045400094518
0.0001929447446065911
0.0001608482015886988
0.000210056258565803
0.0001595787086174839
0.0002286471989312124
0.0001582257962886162
0.0002488913225888346
0.0001567258945064956
0.0002709866697520957
0.0001550925178615393
0.0002950146606349079
0.0001533249966719257
0.0003211620390495894
0.0001514115691970398
0.0003496277573548483
0.0001493408303541133
0.00038061597673294
0.0001471045371152906
0.0004143461872988299
0.0001446936636658476
0.0004510615664594459
0.000142099002505448
0.0004910261833603724
0.0001393116995816511
0.0005345269706038496
0.0001363233372967394
0.0005818762510849202
0.0001331260752057285
0.000633413938980975
0.0001297128399784379
0.0006895099493573014
0.0001260775279249686
0.0007505668626434519
0.0001222152196793722
0.0008170228267156068
0.0001181224047637334
0.0008893547198856206
0.0001137972098378123
0.0009680816010259383
0.0001092396235222749
0.001053768473615514
0.0001044517087756671
0.00114703039194663
9.943778361215299e-05
0.001248536948963515
9.420464190214356e-05
0.001359017088610011
8.8761225707472e-05
0.001479264936594669
8.311503265400565e-05
0.001610148815053473
7.727413346025644e-05
0.001752611893493724
7.125568008412612e-05
0.001907672513076115
6.50802909951282e-05
0.002076445729788992
5.877169037537657e-05
0.00226014613751976
5.235618616656538e-05
0.00246009682370881
4.586339525655092e-05
0.002677737695610014
3.933634660487607e-05
0.002914626524451674
3.270837300583647e-05
0.003172583504299047
2.592823039022053e-05
0.003453455376415606
1.894704989923812e-05
0.003759267045290986
1.168505190907941e-05
0.004092256456090156
4.013239468520562e-06
0.004454875555140555
-4.26516691464033e-06
0.004849807899383152
-1.34482908812759e-05
0.005280002543566634
-2.399607948944251e-05
0.005748721523408168
-3.668159812188241e-05
0.00625965305953243
-5.235245708199068e-05
0.006816546064360111
0.007351544437518015
6.913839344457007e-09
2.512396899011087e-08
2.739634233488931e-08
7.609629729246e-08
6.159860598860002e-08
1.292607901744372e-07
1.100234406474557e-07
1.861110071613248e-07
1.733774961398132e-07
2.481145215295278e-07
2.522777093434666e-07
3.165663194691915e-07
3.468672769645721e-07
3.923692591950802e-07
4.56562140396036e-07
4.758628238679751e-07
5.801641562626392e-07
5.668647257291948e-07
7.163308552255246e-07
6.649710266537149e-07
8.645393349370248e-07
7.699643727354695e-07
1.025244103334977e-06
8.821312114765185e-07
1.19934649591943e-06
1.002577565124438e-06
1.387859470883518e-06
1.132887735979017e-06
1.59189673680292e-06
1.274549841366897e-06
1.812822399839501e-06
1.429002320768837e-06
2.052263197126755e-06
1.597803339433881e-06
2.312102768436573e-06
1.782661096028668e-06
2.59447904737537e-06
1.985445137441435e-06
2.901788670577837e-06
2.208197934533841e-06
3.236698136527407e-06
2.453150069516146e-06
3.602159284705924e-06
2.722740330986501e-06
4.001423326948077e-06
3.019643604230816e-06
4.438040751234542e-06
3.346813410763482e-06
4.915820984867158e-06
3.70755277842658e-06
5.43879159727952e-06
4.105548001426721e-06
6.011283484595343e-06
4.544779132223326e-06
6.638044438748615e-06
5.029531613317722e-06
7.324274844016445e-06
5.56451808724401e-06
8.075661014547646e-06
6.154929075593184e-06
8.898407179189962e-06
6.806487440802206e-06
9.799266875666981e-06
7.525507323361718e-06
1.078557313306508e-05
8.31895934096104e-06
1.186526643544835e-05
9.194542707058172e-06
1.304691864871228e-05
1.016076491937836e-05
1.433974905994359e-05
1.12270295831308e-05
1.575362410395539e-05
1.240373318013344e-05
1.729902339507615e-05
1.370237177181037e-05
1.898694075191453e-05
1.513565928819376e-05
2.082867612613472e-05
1.671766002376555e-05
2.283548458241171e-05
1.846393915996872e-05
2.501813046480067e-05
2.039173722850909e-05
2.738661800291536e-05
2.252017780625843e-05
2.995075863494217e-05
2.48705212405457e-05
3.272042078074891e-05
2.746662865533012e-05
3.570404472851385e-05
3.033554270377191e-05
3.89071100279458e-05
3.350777659315862e-05
4.23313320733489e-05
3.701762198413131e-05
4.597360510311487e-05
4.090357149776552e-05
4.982469591816912e-05
4.520794196725649e-05
5.386749860121063e-05
4.997623164555489e-05
5.807416737618356e-05
5.525704679960831e-05
6.240260638284314e-05
6.110108832572591e-05
6.679329947300811e-05
6.755894009178294e-05
7.116934782363919e-05
7.468019888831151e-05
7.543829118042593e-05
8.252206589874656e-05
7.94970840043078e-05
9.114750596383591e-05
8.324283650673901e-05
0.0001006042407092744
8.658645920374847e-05
0.0001109204471776088
8.943983134032778e-05
0.0001221372465416931
9.171143455955833e-05
0.0001343030823449998
9.336199628858882e-05
0.0001474361345343564
9.4396831296482e-05
0.0001615603081565502
9.485883034774417e-05
0.0001767115676889908
9.487224099845559e-05
0.0001929313339558875
9.461867917984405e-05
0.0002103098203844106
9.427282602111997e-05
0.0002289930520898879
9.392943038893248e-05
0.0002492347182210164
9.362257898886111e-05
0.000271293521152159
9.328335870029959e-05
0.0002953538809234537
9.291656070055835e-05
0.0003215288370493403
9.252759979825927e-05
0.0003500167182571289
9.211173332455567e-05
0.0003810318432066507
9.16636329356814e-05
0.000414794287687679
9.117858348901684e-05
0.000451546615906104
9.065063983371702e-05
0.0004915541270157069
9.007281635855298e-05
0.0005351047940789522
8.943702220045865e-05
0.0005825120452430093
8.873389776246611e-05
0.0006341170634189633
8.795268454040127e-05
0.0006902911625793534
8.708109451153217e-05
0.0007514384526723055
8.610518283150122e-05
0.000817998738395638
8.500923237175236e-05
0.0008904506703453709
8.377565588468297e-05
0.0009693151775129835
8.238492296157593e-05
0.001055159206538617
8.081552370075377e-05
0.001148599791207454
7.90439694130118e-05
0.001250308503251258
7.704479671949648e-05
0.001361016261303516
7.479123607050033e-05
0.00148151849724367
7.225132500162339e-05
0.001612688726122353
6.93868974750998e-05
0.001755476321020226
6.616428213668745e-05
0.001910895128414529
6.25475003603503e-05
0.002080062511565322
5.849805517916142e-05
0.002264195582700945
5.398018751814762e-05
0.002464614691369811
4.895203942755328e-05
0.00268276584370061
4.335758766512962e-05
0.002920220976214098
3.722122676992113e-05
0.003178719865194252
3.053503112344465e-05
0.003460141572062079
2.327112263657633e-05
0.003766530953777855
1.539310173343769e-05
0.004100134476993288
6.870495552669832e-06
0.004463398161321316
-2.331487940434767e-06
0.004859009882876245
-1.22446624766725e-05
0.005289915718102876
-2.286829723070963e-05
0.005759345158162201
-3.394581224876734e-05
0.006270730574550485
-4.443759337341313e-05
0.006827037845484754
0.007307106844144601
2.851212538630181e-09
2.22727564523683e-08
1.148602839565168e-08
6.746148142940701e-08
2.615002445824924e-08
1.145967941134871e-07
4.724580407283543e-08
1.650152275381463e-07
7.529495888380336e-08
2.2006536671906e-07
1.108392045249421e-07
2.810220738271534e-07
1.542740345052896e-07
3.489344292115795e-07
2.056710174805848e-07
4.244658408935417e-07
2.646978667792458e-07
5.07837876430025e-07
3.307128520674187e-07
5.989560413640149e-07
4.02998797326976e-07
6.976784274775557e-07
4.810347647275996e-07
8.040952440746547e-07
5.648552434443259e-07
9.187570864091607e-07
6.548997083318944e-07
1.042843271089289e-06
7.516135599037438e-07
1.177835989794412e-06
8.554656263387691e-07
1.32515025433504e-06
9.670494697520947e-07
1.486219496020645e-06
1.087097324748138e-06
1.662613241030355e-06
1.216480824868624e-06
1.856061637322589e-06
1.356212654482895e-06
2.068466104918143e-06
1.507451653626317e-06
2.30191107037186e-06
1.671509212153522e-06
2.558682772460669e-06
1.84984864216331e-06
2.841304174221771e-06
2.044057305872804e-06
3.152604747051863e-06
2.25574806925858e-06
3.495862015039901e-06
2.486580898707625e-06
3.874715171977025e-06
2.738387297633542e-06
4.292972733298101e-06
3.013210709112166e-06
4.754708201838096e-06
3.313338854500346e-06
5.264389941856302e-06
3.641337375138112e-06
5.826930554953779e-06
4.000085458202518e-06
6.447739357738452e-06
4.392816179079369e-06
7.13277660248344e-06
4.823162294496762e-06
7.888613225544846e-06
5.295207841726065e-06
8.722497159826496e-06
5.813545585657102e-06
9.642427175447603e-06
6.383339866031472e-06
1.065723530275524e-05
7.010393887056795e-06
1.177667915910838e-05
7.701219944944888e-06
1.301154571392112e-05
8.46311083212653e-06
1.437376840101188e-05
9.304210938240905e-06
1.587655991765101e-05
1.023358665709016e-05
1.753456344111967e-05
1.126129838808467e-05
1.936402549751332e-05
1.239848171838804e-05
2.138299447595554e-05
1.365745279503997e-05
2.361155016389332e-05
1.505187664192423e-05
2.607220480844719e-05
1.659703805478539e-05
2.879038129091011e-05
1.83102201710908e-05
3.179459447685265e-05
2.021118089226422e-05
3.511666126295631e-05
2.232255040747886e-05
3.87922019825506e-05
2.466927995667012e-05
4.286121241806495e-05
2.727671783654906e-05
4.736879376567309e-05
3.016777697595999e-05
5.236598766019665e-05
3.335790864938416e-05
5.791095665230091e-05
3.684675525105954e-05
6.407009349010425e-05
4.061136221205042e-05
7.091559192732269e-05
4.460929264993066e-05
7.85241354608627e-05
4.878242958557018e-05
8.697436902819052e-05
5.304779096443321e-05
9.633887933040883e-05
5.729202483890776e-05
0.0001066762133031298
6.138320049496672e-05
0.0001180460708856271
6.518531179739866e-05
0.0001305009710425642
6.854652104629705e-05
0.0001440749252854568
7.130072402258074e-05
0.0001588061051802534
7.330923911762778e-05
0.0001747030525939346
7.451711416199348e-05
0.0001917234589115219
7.499655083489576e-05
0.0002098303837115195
7.491727774263092e-05
0.0002290723251821406
7.455265130404921e-05
0.000249599344659528
7.412421834950004e-05
0.000271721954106732
7.369569120195198e-05
0.0002957824080710221
7.322379287351816e-05
0.0003220007353777071
7.270583189939252e-05
0.0003505346792312722
7.214283791353654e-05
0.0003815948371925127
7.153028697064366e-05
0.0004154068386305721
7.086412891300656e-05
0.0004522127739636826
7.014041847547797e-05
0.0004922778374532452
6.935480561760106e-05
0.0005358904069368309
6.85026449029452e-05
0.0005833642059576537
6.757897002662964e-05
0.0006350407382952634
6.65784496029084e-05
0.0006912916830030647
6.54953410186392e-05
0.0007525215612565455
6.432343365106887e-05
0.0008191706457632224
6.305597795574847e-05
0.0008917181260406755
6.168559675666703e-05
0.0009706855587120834
6.020417372087106e-05
0.001056640629574402
5.860271426703529e-05
0.001150201250661295
5.687117427301081e-05
0.00125204004324527
5.499827511403918e-05
0.001362889160462487
5.297116328693319e-05
0.001483545609070773
5.078254406563115e-05
0.001614877345343658
4.84300636916047e-05
0.001757828801394245
4.589709486119028e-05
0.001913428097244956
4.316438113956013e-05
0.002082795225286936
4.02098797903677e-05
0.002267150084050138
3.700290547442033e-05
0.002467821665685758
3.351084119740939e-05
0.00268625790797762
2.969749295677009e-05
0.002924034324454734
2.554153012377747e-05
0.003182875828027249
2.100717731149902e-05
0.003464675924874358
1.604687366116241e-05
0.003771491257428196
1.061401100220601e-05
0.004105567339652248
4.648924113115189e-06
0.004469363248210407
-1.915886846541021e-06
0.004865574693835902
-9.166050754106343e-06
0.005297165882010443
-1.722020190864214e-05
0.005767399309316739
-2.633367178171922e-05
0.006279844044423562
-3.41609608938963e-05
0.00683486513459693
0.007272945883250705
1.954800262871032e-09
2.031795619347671e-08
7.875798525941301e-09
6.154048316100639e-08
1.793296496986686e-08
1.045396276737681e-07
3.240711515376891e-08
1.505410773545591e-07
5.167186465915165e-08
2.008006172127452e-07
7.614180998437405e-08
2.565521284947452e-07
1.061758983433134e-07
3.189003408541114e-07
1.419549772252915e-07
3.886867620085916e-07
1.833902103369955e-07
4.664026433201565e-07
2.301236049359344e-07
5.522226467612575e-07
2.816359978486073e-07
6.461660345606608e-07
3.374146006703776e-07
7.483166412533225e-07
3.97161384762258e-07
8.590103023171135e-07
4.609936173232989e-07
9.790110385253725e-07
5.291986595656941e-07
1.109630947550455e-06
6.020113878540725e-07
1.252337526046785e-06
6.797173166874246e-07
1.40851356718784e-06
7.626896497831954e-07
1.579640907934009e-06
8.513921673259651e-07
1.767359119781039e-06
9.463769943508943e-07
1.973481277892517e-06
1.048282989108546e-06
2.200005075614467e-06
1.157835073031969e-06
2.449130688536027e-06
1.275841429018815e-06
2.723297818234772e-06
1.403179314740253e-06
3.025266861329158e-06
1.540747431908653e-06
3.358293897871617e-06
1.689528182394516e-06
3.725934421490186e-06
1.85064523637952e-06
4.131855679312277e-06
2.025323836254571e-06
4.580029601962563e-06
2.214906887787439e-06
5.074806890322649e-06
2.420872650419732e-06
5.620964792321193e-06
2.64485215605146e-06
6.223759852105675e-06
2.888648196372082e-06
6.888980562163458e-06
3.154256623503873e-06
7.623004798412742e-06
3.443890353483701e-06
8.432863429845486e-06
3.760006500876455e-06
9.326311028054086e-06
4.105337136570918e-06
1.031190466706056e-05
4.482924277212216e-06
1.139909201846643e-05
4.896159893169005e-06
1.259831009796335e-05
5.348832021148868e-06
1.392109627303237e-05
5.845178514981926e-06
1.538021342381768e-05
6.389950502736804e-06
1.69897914533639e-05
6.98848828593142e-06
1.876548771431893e-05
7.646813297297206e-06
2.072466946458927e-05
8.371741298049573e-06
2.288662216314038e-05
9.171157501577943e-06
2.527278860491761e-05
1.005449357192428e-05
2.790704522056495e-05
1.103306501090826e-05
3.081602303786894e-05
1.212024402444384e-05
3.402948224942051e-05
1.333172598266814e-05
3.75807200243268e-05
1.468590515271319e-05
4.150703324802032e-05
1.620438223759887e-05
4.585031668078681e-05
1.791258425328272e-05
5.065778564451306e-05
1.984030383878635e-05
5.598323706679524e-05
2.202141961499072e-05
6.188897771390059e-05
2.449057422976625e-05
6.844643731254524e-05
2.727879099164163e-05
7.573591869898891e-05
3.040463538206971e-05
8.384852463776013e-05
3.385611964421344e-05
9.288739506826237e-05
3.757270718837994e-05
0.0001029596257589588
4.145929982094583e-05
0.0001141594782530598
4.540285396995856e-05
0.0001265574168935546
4.926977814714612e-05
0.0001402080011082634
5.291467962358499e-05
0.0001551612037038139
5.614964608942816e-05
0.0001714680861280971
5.873411488362054e-05
0.0001891389901173194
6.046650661124066e-05
0.0002080979919839011
6.130762962495414e-05
0.0002282312021684249
6.145110592344718e-05
0.0002494558683610226
6.121734039451286e-05
0.0002719557196356597
6.088257604386974e-05
0.0002961171724216629
6.054465481789066e-05
0.0003223386566036816
6.017831813269264e-05
0.000350901015916474
5.977649778191973e-05
0.0003819966575432772
5.933688961824953e-05
0.000415846446794226
5.885581641710636e-05
0.0004526938471648133
5.832939942089426e-05
0.0004928042544494497
5.775341657896054e-05
0.0005364663897787695
5.712326657602841e-05
0.000583994355960565
5.643395738467849e-05
0.0006357300474866027
5.568007789578515e-05
0.0006920455624919627
5.4855775222626e-05
0.0007533458639296783
5.395473476920692e-05
0.0008200716862166344
5.297016280197321e-05
0.0008927026980079133
5.189477256776059e-05
0.0009717609489462985
5.072077448977392e-05
0.001057814627652383
4.943987312671931e-05
0.001151482152024348
4.80432586387714e-05
0.001253436657733211
4.652161833676942e-05
0.001364410800764489
4.486520810775196e-05
0.001485202019299778
4.306382727031206e-05
0.001616678726181099
4.110673958234218e-05
0.001759785889082208
3.898260811273939e-05
0.001915552228714557
3.667929744837654e-05
0.002085098535951289
3.418387860236109e-05
0.00226964550289615
3.147553300618378e-05
0.002470530011281934
2.853389170117967e-05
0.002689199549282622
2.533870031897792e-05
0.002927229515836934
2.186790425046942e-05
0.003186346624095756
1.809648586394802e-05
0.003468447343260875
1.399545897977224e-05
0.00377559228431237
9.529589171136762e-06
0.004110033209460881
4.655716222265503e-06
0.004474237121159276
-6.779919073693712e-07
0.004870908401965533
-6.537788639661408e-06
0.005303025678742733
-1.303248582995089e-05
0.005773894006507027
-2.01781658841368e-05
0.006286989724477747
-2.185549381483771e-05
0.00683654246252763
0.007251090389435866
1.483662116791948e-09
1.883429407447077e-08
5.977625055087284e-09
5.704652021822987e-08
1.361121243055443e-08
9.690604029378812e-08
2.459956157849243e-08
1.395527281989214e-07
3.923464898821152e-08
1.86165529801736e-07
5.785636382378032e-08
2.379304136539296e-07
8.07939027963308e-08
2.959628018754733e-07
1.0828273080352e-07
3.61197933999015e-07
1.403863734001598e-07
4.342990007202231e-07
1.769636448719983e-07
5.156453752862206e-07
2.17704619783907e-07
6.054250596429434e-07
2.622242317461438e-07
7.037970292896432e-07
3.101745577062618e-07
8.110599763524037e-07
3.614121144558756e-07
9.277734817747249e-07
4.160780953960523e-07
1.054964966608122e-06
4.743702270223463e-07
1.194045394418125e-06
5.364388246373712e-07
1.346444969572421e-06
6.024835801898991e-07
1.513596152380473e-06
6.727678490329403e-07
1.697074850939789e-06
7.476182314781961e-07
1.898630895444943e-06
8.274222983451154e-07
2.120201008745851e-06
9.126266419966059e-07
2.363926344883556e-06
1.003734230297458e-06
2.632190229934502e-06
1.101295383744623e-06
2.927705707881796e-06
1.205901948833036e-06
3.25368733278227e-06
1.318210198247306e-06
3.613626172075846e-06
1.438948182928152e-06
4.011117694631229e-06
1.568905626070605e-06
4.450072158819814e-06
1.708944709085509e-06
4.934767807307524e-06
1.860012156887975e-06
5.469897344518025e-06
2.023151521299415e-06
6.060620487693321e-06
2.199515771902182e-06
6.71261631156043e-06
2.39038149416227e-06
7.432139076152316e-06
2.597165080518367e-06
8.226079843487047e-06
2.821441335929309e-06
9.102034772643114e-06
3.064965001930266e-06
1.006838100105977e-05
3.329695807145214e-06
1.11343612132505e-05
3.617827779346875e-06
1.231017812576055e-05
3.931823710367766e-06
1.360710034201018e-05
4.274455852230438e-06
1.503758128195537e-05
4.648854139389458e-06
1.661539316620365e-05
5.058563475948196e-06
1.835577837775953e-05
5.50761190674686e-06
2.0275621033791e-05
6.000591841875534e-06
2.239364222801081e-05
6.542757016881187e-06
2.473062342991094e-05
7.140138633883204e-06
2.730966360356171e-05
7.799684880427842e-06
3.01564767913237e-05
8.529428982494874e-06
3.329973814735337e-05
9.338660686412195e-06
3.677148832040752e-05
1.023808405868419e-05
4.060760987574847e-05
1.124000651502591e-05
4.484839422444213e-05
1.235856937367462e-05
4.953922278586213e-05
1.361041653973676e-05
5.473138990073177e-05
1.50164230904318e-05
6.048297116320521e-05
1.660310253684212e-05
6.685975786613619e-05
1.840268300054618e-05
7.393633823528364e-05
2.045269801869261e-05
8.179850961961051e-05
2.279367790919312e-05
9.05464151777627e-05
2.546084504202348e-05
0.0001002924586261284
2.845916941820414e-05
0.0001111611538768739
3.173714593514569e-05
0.0001232794403766117
3.519725371768712e-05
0.0001367478933257207
3.873105662450986e-05
0.0001516274007969914
4.221253654589549e-05
0.0001679866062067004
4.544344792068025e-05
0.0001859080787425308
4.814705029830134e-05
0.0002053943896062778
5.004459186091923e-05
0.0002263336606058094
5.098743452798821e-05
0.0002485130256939491
5.117108696160458e-05
0.000271772067202033
5.097399872255941e-05
0.0002963142606607039
5.068579814633763e-05
0.0003226268571798818
5.037688904359373e-05
0.0003512099250192041
5.004484032871632e-05
0.0003823287062581472
4.968333561386672e-05
0.00041620795150906
4.92896719552304e-05
0.0004530875108234402
4.886106407082478e-05
0.0004932328623338682
4.839437687769214e-05
0.0005369330769718838
4.788616764306663e-05
0.0005845025651951775
4.733267373370447e-05
0.0006362835413959573
4.672977517910544e-05
0.0006926484610465561
4.607295782373054e-05
0.0007540026812850543
4.53572741804846e-05
0.0008207873698598738
4.457730068014444e-05
0.0008934826715082509
4.372709151974111e-05
0.0009726111581066979
4.280012994453531e-05
0.001058741589227579
4.178927944263078e-05
0.001152493002526258
4.068672617106242e-05
0.001254539211004773
3.948392293010201e-05
0.001365613604005445
3.817156328124323e-05
0.001486514378948634
3.673949681336445e-05
0.001618110792648968
3.517663977663809e-05
0.001761348746118937
3.347100069872427e-05
0.001917257867792467
3.160967717380478e-05
0.00208695985947621
2.957886962203252e-05
0.002271676310447921
2.736971440246965e-05
0.002472739166501499
2.497089810211526e-05
0.002691598365582981
2.236882116529801e-05
0.00292983159277375
1.955034800456672e-05
0.003189165097256491
1.650363206559587e-05
0.003471494059199842
1.321870925957293e-05
0.003778877207118395
9.681182461069253e-06
0.004113570736259383
5.883868385620771e-06
0.004478034435234728
1.826821693023205e-06
0.004874965448658129
-2.470300732842672e-06
0.005307322801168598
-7.026351071019997e-06
0.005778450056845204
-1.22039123328403e-05
0.006292167285739567
-3.728786547947883e-06
0.006828067336742737
0.007247361602887918
1.244110558199931e-09
1.759018351341339e-08
5.01238298103717e-09
5.327824779397708e-08
1.141329847952468e-08
9.050512479296964e-08
2.062811789175633e-08
1.303379087872816e-07
3.290575211537874e-08
1.738878955779157e-07
4.854400396269518e-08
2.222921618058895e-07
6.784892850649779e-08
2.766578773307756e-07
9.107271764938975e-08
3.379741448584692e-07
1.183473193851583e-07
4.070243989864914e-07
1.496428658386214e-07
4.843498288340332e-07
1.847733498440777e-07
5.70294575639917e-07
2.234508933014965e-07
6.651194858306536e-07
2.653688068119035e-07
7.691420628422392e-07
3.102830368935229e-07
8.828592516925249e-07
3.581942597361925e-07
1.007053743764522e-06
4.092795908047104e-07
1.142960063350049e-06
4.636859386860693e-07
1.292038621692536e-06
5.215572038256269e-07
1.455724887238691e-06
5.830827483882619e-07
1.635549306377528e-06
6.485024305516632e-07
1.833211213279016e-06
7.181033991202726e-07
2.050600040177733e-06
7.92216013083686e-07
2.289813730921438e-06
8.712094618499052e-07
2.553196781168179e-06
9.554834618751236e-07
2.843431707855379e-06
1.045456991931168e-06
3.163713802725219e-06
1.141586159043604e-06
3.517497004963666e-06
1.24437495498102e-06
3.908328898693968e-06
1.354365602464856e-06
4.340081511334167e-06
1.472146527249336e-06
4.816986882522908e-06
1.598361169451727e-06
5.343682702315164e-06
1.733717017715388e-06
5.925264639428882e-06
1.878993804804366e-06
6.567339524470659e-06
2.035052530106552e-06
7.276080350849111e-06
2.202845606587276e-06
8.058286767005583e-06
2.383428423075251e-06
8.921451956155385e-06
2.577972665367777e-06
9.873836758766077e-06
2.787781808487696e-06
1.092455207013048e-05
3.01430927754346e-06
1.208365065670432e-05
3.259179880541217e-06
1.336222973901222e-05
3.524215248996485e-06
1.477254591349911e-05
3.811464184109175e-06
1.632814423108992e-05
4.123238998425222e-06
1.804400356344231e-05
4.462159168575418e-06
1.993670086364e-05
4.831203870992745e-06
2.202459752559296e-05
5.233775252751042e-06
2.432805204815199e-05
5.673774582202537e-06
2.686966427410886e-05
6.15569373552421e-06
2.967455763800338e-05
6.684724855618408e-06
3.277070702725782e-05
7.26689170882681e-06
3.6189321467199e-05
7.909208653535595e-06
3.99652929310379e-05
8.619877949392824e-06
4.413772492858599e-05
9.40854416244664e-06
4.875055657280507e-05
1.028663549228674e-05
5.385329857089067e-05
1.126771039473354e-05
5.950189626075809e-05
1.236778583558137e-05
6.575968242528724e-05
1.360566311725583e-05
7.269846095360656e-05
1.500455101890086e-05
8.039962171796528e-05
1.659583084477025e-05
8.895513535188994e-05
1.842009632198491e-05
9.846819314891317e-05
2.052176940136766e-05
0.0001090594807974868
2.293475257357435e-05
0.0001208664572044048
2.565458726406817e-05
0.0001340280586352213
2.861859025207372e-05
0.00014866339780899
3.174361822222351e-05
0.0001648615782365487
3.492234225778735e-05
0.0001827293547069639
3.795382587297477e-05
0.000202362905991084
4.054181751419749e-05
0.000223745668964569
4.234490218236824e-05
0.0002467099410257843
4.317759954375742e-05
0.000270939369840633
4.327999129270579e-05
0.000296211868911758
4.305810048171878e-05
0.0003228487479908764
4.278775980392007e-05
0.0003514802656969881
4.249329478930388e-05
0.0003826231712727535
4.217370187878379e-05
0.0004165275444195691
4.182590781872391e-05
0.0004534353048835055
4.144737227884141e-05
0.0004936113978737419
4.103539115214943e-05
0.0005373450580985641
4.058700277337048e-05
0.0005849509535739675
4.009899334714382e-05
0.0006367715508221671
3.95678706146803e-05
0.000693179583779015
3.898983888653934e-05
0.0007545807130131925
3.836077393147252e-05
0.0008214164348149298
3.767619532055968e-05
0.0008941672501191619
3.693123726682154e-05
0.0009733561161604327
3.61206169292756e-05
0.00105955220956512
3.523860343326325e-05
0.001153375016022271
3.427898398626615e-05
0.001255498830451765
3.323502741894561e-05
0.001366657560572763
3.209947367593079e-05
0.001487649932691637
3.086450458582089e-05
0.00161934576173908
2.952170670935071e-05
0.0017626915439954
2.806210658878812e-05
0.001918717467913028
2.647622808913808e-05
0.002088545737975859
2.475418563171811e-05
0.002273398352905338
2.288729158322703e-05
0.002474606060549981
2.086647246332088e-05
0.002693619184702887
1.868249032533025e-05
0.002932015574911738
1.632710678895693e-05
0.00319152048079286
1.379374659708709e-05
0.003474027419391707
1.107823786691386e-05
0.003781592715848566
8.187728947487592e-06
0.004116461245178804
5.130241923984906e-06
0.004481091922258228
1.919464470786861e-06
0.004878176226111326
-1.370498743803905e-06
0.005310612764383186
-4.442008523081879e-06
0.00578152156662448
-7.222698838498151e-06
0.006294947976054983
1.434058066999977e-05
0.006806504057234239
0.007261702183557918
1.035228170025359e-09
1.655495533785821e-08
4.170873348151409e-09
5.014260260872388e-08
9.49732641566993e-09
8.517867171802593e-08
1.716609915387283e-08
1.226691360441383e-07
2.738725164700909e-08
1.636667430801173e-07
4.041777433982714e-08
2.092616391056299e-07
5.653444150702157e-08
2.60541210160199e-07
7.598936576965931e-08
3.185192205905362e-07
9.895764741948217e-08
3.840561173349941e-07
1.254967327582672e-07
4.578107434923431e-07
1.555359354328943e-07
5.40255372964352e-07
1.889022641132244e-07
6.317531571485693e-07
2.253745051815418e-07
7.326698217730882e-07
2.647476925824756e-07
8.434860642900602e-07
3.069166288377918e-07
9.648848075092505e-07
3.519881697449287e-07
1.097888522440727e-06
4.001347320918269e-07
1.243892059344856e-06
4.514737661084237e-07
1.404385853219522e-06
5.061515984342299e-07
1.580871474048366e-06
5.643549765693395e-07
1.775007835145872e-06
6.263089743466096e-07
1.988646042400657e-06
6.922729214827103e-07
2.223849783782611e-06
7.625339453605953e-07