/*--------------------------------*- C++ -*----------------------------------*\
| =========                 |                                                 |
| \\      /  F ield         | OpenFOAM: The Open Source CFD Toolbox           |
|  \\    /   O peration     | Version:  v1812                                 |
|   \\  /    A nd           | Web:      www.OpenFOAM.com                      |
|    \\/     M anipulation  |                                                 |
\*---------------------------------------------------------------------------*/
FoamFile
{
    version     2.0;
    format      ascii;
    class       volVectorField;
    location    "0.00000106";
    object      U;
}
// * * * * * * * * * * * * * * * * * * * * * * * * * * * * * * * * * * * * * //

dimensions      [0 1 -1 0 0 0 0];


internalField   nonuniform List<vector> 
44064
(
(0.02363177463319167 2.068215982413124e-05 1.019969188116124e-19)
(0.07045956924389861 6.150937281646613e-05 2.860227282043914e-19)
(0.1172212302163404 0.000100857046671906 4.939344149238046e-19)
(0.1642014864863069 0.0001390635220315974 7.070352359544411e-19)
(0.2114478100543361 0.0001764180444049268 9.408196265494664e-19)
(0.2585472834659601 0.0002130926957649584 1.218036053475953e-18)
(0.3045038399675616 0.000249215750183068 1.474851296098874e-18)
(0.3479371189833783 0.0002849388867356123 1.713123807390145e-18)
(0.3875948610956193 0.000320465226450024 1.922992137932329e-18)
(0.4228365941434543 0.0003557603423596558 2.079296346225476e-18)
(0.4541472499558852 0.000391237417672759 2.220710379358048e-18)
(0.4822634485895489 0.0004273377766543923 2.350565472223997e-18)
(0.5076003832272382 0.0004640964450834718 2.470458427002053e-18)
(0.5305391087634413 0.0005017320375482661 2.581725527379689e-18)
(0.5514400996033052 0.0005404648416215506 2.664700401535199e-18)
(0.5706293297460927 0.000580494084501551 2.743120340518386e-18)
(0.5883911658235956 0.0006220092078141545 2.818086355553471e-18)
(0.6049680246549695 0.0006651949663692733 2.89061646003579e-18)
(0.6205637411271095 0.0007102320187169741 2.961505705916809e-18)
(0.6353483875369661 0.0007572971208192992 2.999904585068186e-18)
(0.6494632632642701 0.000806563456879382 3.048218551990711e-18)
(0.6630254576571675 0.0008582008383851871 3.044846831034521e-18)
(0.6761317866341997 0.0009123756812930706 3.021579831743079e-18)
(0.6888620973498308 0.0009692507732167935 2.996080606726456e-18)
(0.7012820109506399 0.001028984834673699 2.941249012745632e-18)
(0.7134451930407167 0.001091731855232347 2.886419775678911e-18)
(0.7253952397111721 0.001157640194322181 2.805502586790712e-18)
(0.7371672508763933 0.00122685142417027 2.727008503348704e-18)
(0.7487891455549424 0.001299498861826954 2.650903511956871e-18)
(0.7602827674545954 0.001375705758138694 2.577061723114967e-18)
(0.7716648219718411 0.001455583119283925 2.504816392195248e-18)
(0.7829476723818447 0.001539227096891708 2.433109380409618e-18)
(0.7941400125109926 0.00162671586475839 2.299284093935795e-18)
(0.8052474173846476 0.001718105923893832 2.164321614008074e-18)
(0.8162727245494197 0.001813427802664424 2.03012098048884e-18)
(0.8272160931579838 0.001912681179645213 1.896746601376167e-18)
(0.83807441787658 0.002015829688955922 1.763051379829639e-18)
(0.8488395730255464 0.002122796164508175 1.627308240537407e-18)
(0.8594949417969402 0.002233460588400059 1.336259566097185e-18)
(0.8700104061568217 0.002347665859975158 1.028272269414147e-18)
(0.8803382136340842 0.002465223853778067 6.910009318369977e-19)
(0.8904166018631133 0.002585850988769948 1.313624527033282e-19)
(0.9001937772084919 0.002708942859595693 -4.028008059272713e-19)
(0.9096864571988165 0.002834145124987479 -9.19069665436604e-19)
(0.9189491680390937 0.002961363003192587 -9.83352024715039e-19)
(0.9279758190504187 0.003089763893922315 -1.671276446530945e-18)
(0.9367127430403769 0.003218291623659518 -1.666397069425067e-18)
(0.9451069442621512 0.003346051798366525 -1.886499537742034e-18)
(0.9531078763254404 0.003472029153175531 -2.221242672132908e-18)
(0.9606754942669905 0.003594993639221101 -2.736299656361859e-18)
(0.9677817014866628 0.003713351843088941 -3.542382912640049e-18)
(0.97438670566992 0.003825492337098251 -4.209289067946303e-18)
(0.9804385083433359 0.00392975276666496 -4.81717048947392e-18)
(0.9858759899899471 0.004024582685197661 -5.229802776063931e-18)
(0.9906345279578261 0.004108728102943962 -6.103824262235255e-18)
(0.9946520821113636 0.004181093549991178 -4.350796729720868e-18)
(0.9978771244494086 0.004241134263405031 -2.101489298197303e-18)
(1.000281902423134 0.004288278852367692 6.322123007604536e-19)
(1.001877287699112 0.004315942859435156 9.085620227335042e-18)
(1.002726744387226 0.00429219985744165 1.554370385144147e-17)
(1.002967942285603 0.004386397113014092 2.185042718416936e-17)
(1.003143858702418 0.004348735675438265 1.501204169055132e-17)
(1.003239153400791 0.004352654213459613 9.250793008090113e-18)
(1.002992853394897 0.004284812651820739 4.728499709065237e-18)
(1.002586973097446 0.004255217699558638 2.523074271180288e-18)
(1.002219516310382 0.004217609821696318 -1.305537096902218e-17)
(1.002199391054472 0.004203616503478983 8.531953243131187e-18)
(1.002332300951305 0.00419566211238165 4.854025344968542e-18)
(1.002326237685541 0.004139901135058723 8.834227602482483e-19)
(1.00228566128886 0.00408736704006688 3.023771779994166e-19)
(1.002265693953979 0.004051965208641714 -4.334015495130707e-17)
(1.002246906186335 0.004004472503616823 -8.287072750991615e-18)
(1.002218202668782 0.00395004541041759 -1.755553210805697e-18)
(1.002185158858188 0.003893402632715067 8.969553958581758e-20)
(1.00215026130829 0.003832725242196633 -3.676499099717487e-18)
(1.002112749301659 0.003766863882894681 -1.420757706652115e-18)
(1.002072551807927 0.00369612782145225 -1.125779172001083e-18)
(1.00202955369928 0.003620242413775768 3.428970530762771e-17)
(1.001983641922484 0.003538962921298332 7.596914046047522e-18)
(1.001934721563303 0.003452099676582626 -1.50473775685396e-18)
(1.001882714999733 0.003359480697205324 5.739463450558284e-17)
(1.001827564641248 0.003260960255175316 3.177083562590393e-18)
(1.001769237853061 0.003156427025592649 2.029437985647052e-17)
(1.00170773230901 0.003045809800571138 4.01270786447419e-17)
(1.001643081030423 0.002929082266352119 -5.213698965382126e-18)
(1.001575362278913 0.002806271539133952 3.44320325529996e-17)
(1.001504696857776 0.002677486254944057 1.397196252650672e-17)
(1.00143114946912 0.002542636226378286 5.200360440054036e-17)
(1.001355749217841 0.002403119245102002 6.767912808001498e-17)
(1.001272897066306 0.002258065177862691 9.963099884138005e-17)
(1.001177374500189 0.002105276325618435 1.044809415223061e-16)
(1.001080775222638 0.001949633323513674 1.232931900042661e-16)
(1.000983108371521 0.001789334710740084 4.729384786288938e-17)
(1.000884637269658 0.001625304619605084 1.317416684931866e-16)
(1.000784613922759 0.001457990396682356 1.172126209788697e-16)
(1.000683482311495 0.001289350790754114 8.009173136192831e-17)
(1.000575640213543 0.001108708183834674 8.490698234787652e-17)
(1.000518017133322 0.0009429491185739659 4.681662923183361e-17)
(1.00048183505983 0.0007699817680393917 4.500170233753636e-17)
(1.00045141701679 0.0005890828438247241 3.857736050431227e-17)
(1.000428208900489 0.0004020476062262124 2.333147904213812e-17)
(1.000413560715842 0.0002060763063676386 2.52918125529696e-17)
(1.000409707582522 -3.054718444210733e-06 -1.61263129027865e-18)
(1.000419807732025 -0.0002320149135997628 2.963558503776697e-17)
(1.000448714900389 -0.0004929932649702451 -5.963938603419169e-18)
(1.000500495413663 -0.0007893306264045838 -9.806581903133399e-18)
(1.000558716616999 -0.0009681300052739625 4.287763795834514e-17)
(0.9952857570415589 -0.001315728240741819 -2.51845963460169e-17)
(0.01680320280004798 2.709871061262493e-08 -4.774916575565481e-20)
(0.0505279955447586 4.236730440174051e-07 -1.436012994066154e-19)
(0.08460925211668673 1.227073198481891e-06 -2.645240494973118e-19)
(0.119259246371602 2.457793551144737e-06 -4.11968831873264e-19)
(0.1546000123835006 4.125277079666476e-06 -5.62498320134004e-19)
(0.1905491062032703 6.250155430966949e-06 -7.158495303760537e-19)
(0.226700398228233 8.847558003900183e-06 -8.449139351043077e-19)
(0.2623045110581516 1.191192244006019e-05 -9.97605050307307e-19)
(0.2964295870538661 1.541291829224411e-05 -1.120477814755768e-18)
(0.3282463374651163 1.930706834778259e-05 -1.213272331345422e-18)
(0.3572670092783473 2.356985299473636e-05 -1.2781555051374e-18)
(0.3834288281033492 2.817672685996663e-05 -1.300431493399362e-18)
(0.4071356409313678 3.316596473598103e-05 -1.321380874573742e-18)
(0.4288166460829251 3.858181937975835e-05 -1.341370269022171e-18)
(0.4487164993473609 4.444158640962407e-05 -1.332440054683767e-18)
(0.4670575031306268 5.078219165345168e-05 -1.325190577841828e-18)
(0.4840511404713201 5.764962611896063e-05 -1.3195967433068e-18)
(0.4998929742656549 6.509674685583091e-05 -1.293149507762429e-18)
(0.5147587814792244 7.318368126868886e-05 -1.269794487465824e-18)
(0.528803355302186 8.197817137843692e-05 -1.229411233414799e-18)
(0.5421611183833004 9.155584210819565e-05 -1.173869228585141e-18)
(0.5549476808121342 0.0001020006400911505 -1.086295042156807e-18)
(0.5672617808680415 0.0001134053763259296 -1.004375879263762e-18)
(0.5791873118813179 0.0001258718973795631 -8.932615331142319e-19)
(0.5907953088770451 0.0001395099545317115 -7.873994286635707e-19)
(0.6021458549872455 0.00015443626242397 -6.853540173479953e-19)
(0.6132898793120628 0.0001707759748699028 -5.851336546440632e-19)
(0.6242707899697846 0.0001886639191008959 -4.841580415027451e-19)
(0.6351259148798948 0.0002082483391665867 -4.023840807242973e-19)
(0.6458877480855109 0.0002296916952501026 -2.71950795787402e-19)
(0.6565849937469915 0.0002531714594272235 -2.244614967298738e-19)
(0.6672434156677007 0.0002788810336273542 -1.76368960702733e-19)
(0.6778865019255382 0.000307030682142224 -1.298170180292558e-19)
(0.6885359546712017 0.00033784841497896 -8.610948505522746e-20)
(0.6992120102739354 0.0003715807980248617 -4.599172138511598e-20)
(0.7099335906099938 0.0004084936007838349 -9.832221831634219e-21)
(0.720718308021095 0.0004488721496055715 9.04719642267811e-20)
(0.73158235869227 0.000493021001445242 1.8870214763895e-19)
(0.7425403735358955 0.0005412621779014073 1.418556796265067e-19)
(0.7536053347068944 0.0005939306660885588 8.885277856103946e-20)
(0.7647886774693355 0.0006513652831169815 1.821035845654567e-19)
(0.7761007533205527 0.0007138948057190292 1.191250038927356e-19)
(0.7875518816061221 0.0007818278262372605 5.254530339738659e-20)
(0.7991541601030395 0.000855466500173554 -1.462422699946379e-20)
(0.8109240441951043 0.0009351037362761893 -8.002030703475247e-20)
(0.822885840466386 0.001021005980586615 -5.233144586792959e-19)
(0.835075861484222 0.001113381737273782 -9.921553145431699e-19)
(0.8475440072145417 0.001212370056560454 -1.926529704837675e-18)
(0.8603435441218154 0.001317954707721276 -2.950780937726309e-18)
(0.8734895351534668 0.0014299310721999 -4.085008692773677e-18)
(0.8869237636323075 0.001547966566000384 -4.786505258912697e-18)
(0.9005167772514159 0.001671416849164788 -4.939029580445099e-18)
(0.9140517447332603 0.001799420536550613 -5.068159237447193e-18)
(0.9272158995693143 0.001930389179771086 -5.952908274851964e-18)
(0.939699364157132 0.002061531307681149 -6.929463629033565e-18)
(0.9514242917744926 0.002190314410393787 -6.068822738075789e-18)
(0.9624864605999265 0.002314946601233469 -4.984145661809524e-18)
(0.9728032574933394 0.002432046546529942 -1.09306267318365e-18)
(0.9821345362790994 0.002542222011935309 3.729111055686659e-18)
(0.9902137081036763 0.002653151378746681 9.655983717261745e-18)
(0.9967723110476572 0.002686899013549493 1.537096678528191e-17)
(1.001523139891115 0.002759305855300929 1.347518653441557e-17)
(1.004572990707561 0.002790218811999975 7.393817024363338e-18)
(1.006257680078378 0.002857806113492546 -7.622028300728571e-18)
(1.006957145292919 0.002812557820166674 -7.381675550637729e-18)
(1.007072892013921 0.002831180381417541 -2.905727021790214e-17)
(1.006624337424401 0.002838214085286811 -4.457147875511368e-18)
(1.006164909525731 0.002803447793422658 3.746085887182038e-18)
(1.006279638798558 0.002789336044214025 1.780355607484307e-17)
(1.006259455479719 0.002789170627477957 5.160006258367263e-18)
(1.006166328970028 0.002780182813179175 -2.311259283005791e-17)
(1.006084991035233 0.002765977001028906 -1.768770343934872e-17)
(1.006017442734674 0.002753936926317891 1.885263378327163e-17)
(1.00594069395151 0.002741592993602686 7.685818513091722e-18)
(1.005856807641302 0.002727725667478395 4.906831087822902e-17)
(1.005767553261391 0.002712479501090697 -6.052494806979238e-18)
(1.005672256879296 0.002695979661922826 -5.154436144200703e-18)
(1.005570651160594 0.002677868094573459 2.794979308325689e-17)
(1.005462615771239 0.002657864623671327 9.998312534931659e-18)
(1.005348052022829 0.002635687645407849 -1.787012987532322e-19)
(1.005226912785662 0.002610991493023174 -4.0950333837962e-18)
(1.005099217584002 0.002583382149012079 -4.642840895146294e-18)
(1.004965060068257 0.002552416296619486 2.909768489173689e-18)
(1.004824616502056 0.002517596724071668 6.958719773210254e-17)
(1.004678153192716 0.002478367940677921 7.161871913891385e-17)
(1.004526028480797 0.002434106312210298 1.737479467457445e-16)
(1.004368716540774 0.002384232407560938 2.878672568404105e-16)
(1.004206786377766 0.002327670732392214 3.678483418842535e-16)
(1.004040695104841 0.002263814042539965 4.610766193353182e-16)
(1.003881077228651 0.002192313399811612 5.315810287235001e-16)
(1.00373480675166 0.00211157732374268 5.795187397869526e-16)
(1.003585087877156 0.002021144592857437 6.513350937522111e-16)
(1.003432634279638 0.001918861334430751 6.113163607674973e-16)
(1.003278359582523 0.001804313972502907 5.756040257156828e-16)
(1.00312450490579 0.001675838956233261 5.404123002044038e-16)
(1.002971668713911 0.001535778853080295 4.172764923610512e-16)
(1.002818953899495 0.001378966903920545 4.092450319706027e-16)
(1.002683454678337 0.001203535379300411 2.62175574962463e-16)
(1.002565038443457 0.001008665022517644 2.32756970705338e-16)
(1.00246409806825 0.0007999496982602177 1.909787763831059e-16)
(1.002383764418934 0.0005747085816262687 2.322133146468386e-16)
(1.002330774760438 0.0003307277890542449 1.437352502522722e-16)
(1.002311922300028 6.728584661012442e-05 1.061658376507171e-16)
(1.002335981333372 -0.0002147136534262352 1.900379148932062e-16)
(1.002415347840334 -0.0005180113004979519 1.421849778985457e-16)
(1.002587911165723 -0.0008848565361101507 7.29226001672119e-17)
(1.002833566469149 -0.0009973830677183063 5.748756478503916e-17)
(0.9896935754936403 -0.002186932500997794 -4.203949922496111e-18)
(0.01468934937053282 1.188681210011653e-08 7.966283781081518e-21)
(0.0441731702959753 1.971360667027716e-07 4.690877820332089e-20)
(0.07397183868682049 5.80438500437054e-07 4.615139949898122e-20)
(0.1042804749819678 1.17724591530494e-06 7.113250942160226e-20)
(0.1352405408415544 1.998930019729116e-06 8.864020006978914e-20)
(0.1668656369517701 3.063588750181676e-06 1.111806023313097e-19)
(0.1989495776804247 4.388921477625823e-06 1.37918407853977e-19)
(0.2310149054254822 5.984176436153053e-06 1.689110664271992e-19)
(0.2623697813017136 7.844736263009247e-06 2.048361097973112e-19)
(0.2922788823419278 9.952447926486664e-06 1.905900328126507e-19)
(0.3201651318225139 1.228219725775959e-05 1.578096625944769e-19)
(0.3457351539294147 1.480886780081746e-05 1.319335215126764e-19)
(0.3690304339770578 1.752215205239443e-05 1.118984633375359e-19)
(0.3903685889747325 2.043484813800895e-05 8.324050693784778e-20)
(0.4100443378483044 2.356722829238697e-05 4.586531381126861e-20)
(0.4282386028364384 2.692979843598236e-05 5.229565046781825e-21)
(0.4451202714988703 3.054027691510404e-05 -4.14213685365524e-20)
(0.4608528869661315 3.442129574810044e-05 -2.576515048737213e-20)
(0.4755899909074428 3.85999136699479e-05 -1.76428897983505e-20)
(0.4894712346352749 4.310779982185984e-05 -1.059753701869642e-20)
(0.5026207142296002 4.798155868756228e-05 1.779600944131777e-20)
(0.5151474560764614 5.326318491374338e-05 4.3165992619196e-20)
(0.5271482417537158 5.899976021085884e-05 5.15188306312182e-20)
(0.5387136958984939 6.52400172803093e-05 2.168043707247205e-20)
(0.5499394804738749 7.203491474685043e-05 -4.370059487956326e-20)
(0.5609214243148866 7.944780279741669e-05 -1.074539531514247e-19)
(0.5717206833963875 8.753661515158547e-05 -1.702380420322722e-19)
(0.5823668777343811 9.635951880161182e-05 -2.347078595754461e-19)
(0.5928844529972921 0.000105990885655796 -2.583751794392947e-19)
(0.6032944976789308 0.0001165126095557273 -3.2245802787051e-19)
(0.6136158002136776 0.0001280158392857072 -3.713375459950841e-19)
(0.6238654240974444 0.0001406028214042479 -4.097552733789034e-19)
(0.634059160139663 0.0001543884670777235 -4.256850996871155e-19)
(0.6442118950026497 0.0001695019513499481 -5.117895300697971e-19)
(0.6543379194768202 0.0001860885300013616 -5.893442098789288e-19)
(0.6644511952977522 0.0002043115649549974 -7.4341962104006e-19)
(0.6745655995684393 0.0002243547237888981 -8.816676242385121e-19)
(0.6846951649505855 0.0002464243010623106 -1.114871285107745e-18)
(0.6948543363377644 0.0002707515804100421 -1.4054681130168e-18)
(0.705058264773644 0.0002975951357227009 -1.672551085571434e-18)
(0.7153231494073951 0.000327243253850216 -1.837013764051004e-18)
(0.7256666335334171 0.0003600175872050591 -2.033600754439847e-18)
(0.7361082626051658 0.0003962782011493688 -2.192924636825992e-18)
(0.7466700443628521 0.0004364095733178442 -2.420352356328805e-18)
(0.7573851783805033 0.0004808316799679025 -2.340066081840358e-18)
(0.7683046917052072 0.0005300463500834553 -2.296998079787176e-18)
(0.7794826231950885 0.0005846102495894916 -2.352036033676338e-18)
(0.7909657039320813 0.0006451315959528361 -2.479395332473401e-18)
(0.8027990712395322 0.0007123224675697611 -2.250499271136439e-18)
(0.8150308474640804 0.0007869881336676229 -1.896346525946846e-18)
(0.8277158478010561 0.0008699799342724071 -1.369083606346037e-18)
(0.840917416772047 0.0009621114301172774 -6.071164067377518e-19)
(0.8547017946055062 0.001064063402920848 2.483304208849932e-19)
(0.8691094959618428 0.001176293275593656 1.31246504587835e-18)
(0.8840865738930492 0.001298204337662317 2.391485698031678e-18)
(0.8995018008160636 0.001428794637700789 3.008814300291393e-18)
(0.9151187505893335 0.001566673949238041 1.902305208873209e-18)
(0.9305155528988233 0.001709561721068176 1.587458815344927e-18)
(0.9451359474332675 0.001852577807585339 1.946708051957645e-18)
(0.9587976383370275 0.001993227300576828 3.036055658317967e-18)
(0.971495015238573 0.002125327798911436 2.856558225776334e-18)
(0.9828908772465756 0.002248186434229461 4.589801495214002e-18)
(0.9925272774328292 0.002347752275329495 4.480809913117592e-18)
(0.99998671215113 0.002419591150143878 5.043257742254449e-18)
(1.004914893076509 0.002502041990491736 -7.192712031622952e-18)
(1.007390149725333 0.002532605865468684 -3.120648773322875e-17)
(1.008164230129615 0.002493319266797619 -1.497513568428542e-17)
(1.008125421830045 0.002483667412539488 1.548331149819033e-17)
(1.007748074521571 0.002512171311481256 3.076783214237093e-17)
(1.007802720199023 0.002476368501681829 1.66886238813122e-17)
(1.007805058715842 0.002459702714505733 -1.85449007981554e-17)
(1.007756277997647 0.002443898152752216 -1.35195392164464e-17)
(1.007706988277079 0.002427139370871347 3.576348194450363e-17)
(1.007657387392084 0.002407398163247592 -1.969197304654383e-17)
(1.007602644159654 0.002385755091164207 2.784803311491247e-17)
(1.007543857787379 0.002362460825101035 8.912586923263375e-18)
(1.007480873310498 0.002337216947257164 1.534583281994847e-17)
(1.007413299059438 0.00230978346497416 4.755341000139952e-17)
(1.00734088701734 0.002280034498490588 3.27928550174351e-17)
(1.007263384230746 0.002247810557073186 -6.935086280120653e-19)
(1.007180539655788 0.002212919668492775 1.888601738471829e-17)
(1.007092113270132 0.002175161671226506 -3.125676285296331e-17)
(1.006997879241531 0.002134320840391004 5.503547062183493e-18)
(1.006897632861609 0.002090161262608361 3.381493443903808e-17)
(1.006791200212317 0.002042429576380885 2.367448132966057e-17)
(1.006678446019473 0.001990799761671032 1.477656626732946e-16)
(1.006559290983583 0.001935082045170439 2.143595807499869e-16)
(1.006433696844875 0.001874833140271094 2.491381403266036e-16)
(1.006301715797219 0.001809076763238337 3.486614249403681e-16)
(1.006163607674433 0.001738423245407052 4.121827750463093e-16)
(1.006019340831235 0.001663130625885807 4.189975879717358e-16)
(1.005869066165743 0.001581445376080603 4.19970120540511e-16)
(1.005713470598311 0.001493140370844679 3.28570316415209e-16)
(1.005553661465727 0.001398022399168177 1.493124021962636e-16)
(1.005385731577109 0.001294138741149104 1.225982096617916e-16)
(1.005213940069522 0.001182426837359062 -1.225656054911484e-17)
(1.005041651957364 0.001061569973940661 -3.281970769526039e-18)
(1.004873730230445 0.0009267985795092449 -9.480442151802203e-17)
(1.004718686055681 0.0007795518918941121 -1.043188568686184e-17)
(1.004581975832841 0.0006212258085819126 4.800259791897196e-17)
(1.004473865099243 0.0004471143553880306 2.389311670792103e-16)
(1.004398041286153 0.0002558941688086149 2.618425921657014e-16)
(1.004366058673564 4.512686849865842e-05 3.036618598834783e-16)
(1.004392376705306 -0.0001879933642984993 4.239685261757393e-16)
(1.004493780440854 -0.0004356626011890296 3.146864983564311e-16)
(1.004632978440993 -0.0007388781971586006 1.360561753321075e-16)
(1.004571124146146 -0.0003220688521107599 1.296025137939097e-16)
(0.9846186852387897 -0.003626342994738302 4.726522774537809e-17)
(0.01319943294089996 9.046702268559624e-09 2.284160727619472e-19)
(0.03969282123631077 1.503097897525638e-07 6.469512725340997e-19)
(0.06646998780276937 4.426837796152342e-07 1.02151172876198e-18)
(0.09371140327375431 8.98027395617217e-07 1.393025080263571e-18)
(0.1215636391233205 1.525286943525795e-06 1.794418501322339e-18)
(0.1500893072237104 2.339162407341834e-06 2.236769942221608e-18)
(0.1791983403663926 3.355445462534419e-06 2.687095359455523e-18)
(0.2085933541297141 4.585437144539651e-06 3.104947260108429e-18)
(0.2377781007085045 6.031177007631518e-06 3.526709843963254e-18)
(0.2661515406722996 7.683468347142954e-06 3.942221593962879e-18)
(0.2931521920255077 9.524300727565167e-06 4.307057397949668e-18)
(0.318383824272856 1.153274484031456e-05 4.649099549564817e-18)
(0.3416712362004168 1.369041254490752e-05 4.9631740119355e-18)
(0.3631006388378021 1.599473078785338e-05 5.257907280329856e-18)
(0.3829200460357609 1.845575171148092e-05 5.521752915117263e-18)
(0.4013325977820325 2.108640348756402e-05 5.75367927134142e-18)
(0.4184757169411435 2.389320654052294e-05 5.956070110158349e-18)
(0.4344823663437901 2.688839095953005e-05 6.134192435910412e-18)
(0.4494836513284394 3.008788549141055e-05 6.308969800648057e-18)
(0.4636043248505754 3.351082418710341e-05 6.472928286475866e-18)
(0.4769593809307403 3.717972947405679e-05 6.656931651844081e-18)
(0.4896533233566976 4.112067530143736e-05 6.822031537120501e-18)
(0.501783209464247 4.53620506015447e-05 6.972331098241937e-18)
(0.5134474918538655 4.993041982483109e-05 7.145929114430372e-18)
(0.5247642859264104 5.486322607433668e-05 7.311814012764215e-18)
(0.5358279271723533 6.020122362184125e-05 7.478421472675659e-18)
(0.5466847327865705 6.597637114427504e-05 7.662402551850833e-18)
(0.5573667283451483 7.223304050730833e-05 7.814140224648551e-18)
(0.5678997361787455 7.90200268748295e-05 7.925095412647191e-18)
(0.5783054654548986 8.638990457407572e-05 8.085493720006801e-18)
(0.5886029951445043 9.440054280499812e-05 8.243818574019768e-18)
(0.5988094602568067 0.0001031158734543269 8.395633468062165e-18)
(0.6089405568023014 0.0001126066310048364 8.478709884456345e-18)
(0.619010950598097 0.0001229511846343998 8.556975915412823e-18)
(0.6290346181719234 0.0001342364884047161 8.683507597798841e-18)
(0.6390251407175026 0.0001465591584710039 8.711537830105682e-18)
(0.6489959673877698 0.0001600266951675331 8.757614865996803e-18)
(0.6589606606814141 0.0001747588744871444 8.813494974371459e-18)
(0.6689331339078933 0.0001908893442317708 8.811173400194344e-18)
(0.678927888359963 0.0002085674800591712 8.751133156810441e-18)
(0.6889602554658298 0.0002279605823776857 8.723923441090968e-18)
(0.6990466473657061 0.0002492564403828132 8.670697890516453e-18)
(0.7092048204150969 0.0002726660619369536 8.614394188692423e-18)
(0.7194541628277823 0.0002984266553280431 8.585991946238326e-18)
(0.7298160292014021 0.0003268112011521354 8.677873202474382e-18)
(0.7403141519504212 0.0003581413293182091 8.703370020031593e-18)
(0.7509751403493874 0.0003927999022886758 8.631469111373802e-18)
(0.7618290732998128 0.0004312465187753058 8.640954194865142e-18)
(0.7729088482416089 0.0004740231673178359 8.717261714898932e-18)
(0.7842493077780497 0.0005217642407602887 8.333911066499781e-18)
(0.7958886767130359 0.0005752247921856777 8.567689635709098e-18)
(0.8078700633526097 0.000635274998414583 8.369711747993846e-18)
(0.8202546007381968 0.0007028931865369072 8.109494122118857e-18)
(0.8331460148872227 0.0007793139207157429 7.925327354630075e-18)
(0.8466654070761876 0.0008658996997409577 7.886139721102696e-18)
(0.8609103647908475 0.0009638834777698661 8.117469563183374e-18)
(0.8759469093478197 0.001074235254579203 9.491981810372477e-18)
(0.891772947803004 0.001197205818767169 9.395787641014105e-18)
(0.9082285440798027 0.001331724684818073 9.350661176551998e-18)
(0.9248904502360488 0.001475041334656639 9.163494659560576e-18)
(0.9411320317271623 0.001622462963678119 9.333326093778851e-18)
(0.9564805642300371 0.001768369069459651 7.917981331856704e-18)
(0.9707855192455797 0.001909941449884736 4.615008386137989e-18)
(0.983668497363322 0.002038300028297677 -4.79049455823021e-18)
(0.9944065880622348 0.00215089082228408 -1.586435862834895e-17)
(1.002280747370204 0.002227366470606355 -1.360580895540901e-17)
(1.006942633054429 0.00228835672550361 -1.38685620854952e-17)
(1.008673782735432 0.002295617776842445 7.381870068920981e-18)
(1.008983590443719 0.002270682766915283 4.061194174474298e-17)
(1.008744966261625 0.00228378013428151 3.874489188827684e-17)
(1.008709701244968 0.002262752265499234 1.163091648627183e-17)
(1.008672023762199 0.00224920254626113 2.831495902166358e-17)
(1.008622509360711 0.002235789613365886 -2.918602173423978e-19)
(1.008571490530231 0.002219786843802838 -4.895015167404883e-17)
(1.008516274884074 0.002202493813324828 1.844895196888916e-17)
(1.008456956961308 0.002183794589890847 3.201941092654004e-17)
(1.008393512384836 0.002163264072874641 2.198966688655597e-17)
(1.008325618529255 0.002140766163726851 6.773786653890182e-17)
(1.008253065129211 0.002116168126680047 5.027244951359441e-17)
(1.008175658997736 0.002089268066654381 9.020633203541999e-18)
(1.008093220012734 0.002059848985183032 2.758229669782358e-17)
(1.00800559047028 0.002027686481830895 -3.366319550364666e-17)
(1.007912639381868 0.001992536916190116 -8.290469979349654e-18)
(1.007814269952578 0.00195413606665108 -1.763987480277715e-17)
(1.007710428742576 0.001912218430603717 -6.689872033898593e-17)
(1.007601111796973 0.001866428330494741 2.736733954823848e-17)
(1.007486391749342 0.001816525843703144 3.511661131083092e-19)
(1.007366375262672 0.001762290881154699 7.66316903875305e-18)
(1.007241212944042 0.00170285678958842 5.3984351706735e-17)
(1.007111353963287 0.001638236847060831 1.569313689717561e-17)
(1.006977029277332 0.001568447861361442 -7.605916192755007e-17)
(1.006838548807024 0.001492242746757209 -1.029134942307548e-16)
(1.006696696380524 0.001409602108176372 -2.479777562691957e-16)
(1.006552449528523 0.001320727316343682 -4.253283190068075e-16)
(1.006411894220444 0.001223241730860181 -4.541779987713777e-16)
(1.006274299962514 0.00111781680315239 -6.020198407318191e-16)
(1.006138873177198 0.001004470133988676 -5.079712003277617e-16)
(1.006009225260669 0.0008795048698412547 -5.182762977874364e-16)
(1.0058928005687 0.0007441525371339477 -3.326286302143364e-16)
(1.005793890466385 0.0005983479567203817 -1.445804833350661e-16)
(1.005713319496844 0.0004386872796012357 1.348315359487322e-16)
(1.00566154649131 0.0002650287061237709 3.172331469269613e-16)
(1.005645216159652 7.58255671532199e-05 4.233663618650489e-16)
(1.005673161115608 -0.0001344020111702997 5.902100341353607e-16)
(1.005757587516475 -0.00037448684429069 4.111139410265939e-16)
(1.005965074393193 -0.0007427970107151245 1.849894443891848e-16)
(1.005457475667057 0.001733989096586409 1.405992161543536e-16)
(0.980500316060463 -0.008268669594602776 1.844298485003956e-17)
(0.01221723317361476 7.569823122805481e-09 1.684696906362037e-19)
(0.03673905394139512 1.257692810851865e-07 5.066386014534024e-19)
(0.06152379949278705 3.70415839811725e-07 8.484628186549334e-19)
(0.08674107407611835 7.514552979389918e-07 1.1962834714422e-18)
(0.1125363663543258 1.276507815697747e-06 1.552101695901492e-18)
(0.1389936807746291 1.958416395390228e-06 1.917055090110396e-18)
(0.1660809772354546 2.811931575879091e-06 2.290656599699513e-18)
(0.193599110170917 3.849700869855649e-06 2.670092120757998e-18)
(0.2211711270602341 5.078416333741648e-06 3.050083134114404e-18)
(0.2482975105645459 6.496216224274573e-06 3.423653040584933e-18)
(0.2744627892173409 8.092824985928946e-06 3.783589906454993e-18)
(0.2992464665222552 9.852708274040386e-06 4.124012827713789e-18)
(0.3223936559244928 1.175978531314951e-05 4.441352113515562e-18)
(0.3438278130707746 1.379994721690566e-05 4.734498713108696e-18)
(0.3637046237474035 1.597650297480299e-05 5.005542445969746e-18)
(0.3822357953545452 1.829949540824685e-05 5.257332271048798e-18)
(0.3995483246827089 2.077468231156388e-05 5.491559950331782e-18)
(0.4157527665011833 2.340838479981663e-05 5.753100375267027e-18)
(0.4309617203829565 2.621025536861281e-05 5.997451854045943e-18)
(0.4452868473271933 2.919262084350813e-05 6.22641886877675e-18)
(0.45883455689664 3.23704605550997e-05 6.441684785992637e-18)