/*--------------------------------*- C++ -*----------------------------------*\
| =========                 |                                                 |
| \\      /  F ield         | OpenFOAM: The Open Source CFD Toolbox           |
|  \\    /   O peration     | Version:  v1812                                 |
|   \\  /    A nd           | Web:      www.OpenFOAM.com                      |
|    \\/     M anipulation  |                                                 |
\*---------------------------------------------------------------------------*/
FoamFile
{
    version     2.0;
    format      ascii;
    class       volScalarField;
    location    "0.00000156";
    object      betaFieldInversion;
}
// * * * * * * * * * * * * * * * * * * * * * * * * * * * * * * * * * * * * * //

dimensions      [0 0 0 0 0 0 0];


internalField   nonuniform List<scalar> 
44064
(
1.499695500786586
1.489330705724614
1.398577141751085
1.060190959406247
0.5409896059598017
0.2998912842616262
0.2150720309012285
0.1881826377072243
0.1856489754989384
0.1859927993565591
0.1916934467041702
0.2018501991201347
0.215093864673048
0.2303094193642432
0.2466464384972669
0.2634357309696094
0.2801341220111351
0.296304670237505
0.3116076819660221
0.3257983330424376
0.3387205025789138
0.35029566367079
0.3605098069100392
0.3694001289629699
0.3770497790571162
0.3835657858075371
0.3890781753058685
0.3937325361351142
0.3976850105218284
0.4010977696730823
0.4041340693400561
0.4069591381666922
0.4097394957356607
0.4126427276820045
0.4158377156942893
0.4194940522338529
0.4237786909672766
0.4288473176031681
0.43482824020691
0.4417986320963377
0.4497592363872716
0.4586138670714016
0.4683411138678408
0.4793554539429253
0.4928160557725423
0.5114916331569005
0.5399388072735852
0.5839600966457145
0.6464390322678286
0.7127034269092291
0.763185591333342
0.8213476892814178
0.9166205811113128
1.045280674469701
1.179171163863387
1.293356333578784
1.377812673943676
1.433215672757176
1.465718844817578
1.483099414189856
1.492032155289109
1.496644486409786
1.498864651742664
1.499690099549203
1.499880015082016
1.499920107823464
1.499935152511834
1.499917369659521
1.499931872741456
1.499943485506494
1.499939664198244
1.49994212655179
1.499942314626001
1.499941546688454
1.49994184457154
1.499943546075408
1.499944490851622
1.499945378331039
1.49994663726535
1.499948810615456
1.499952901793218
1.499957779158798
1.499959553763424
1.499958082410891
1.499955119997126
1.499951458778355
1.499947147339211
1.499942476568407
1.499938062938826
1.499934324543778
1.499930912528893
1.499928126051759
1.499927173817622
1.499930130409789
1.499936001720714
1.499939496839281
1.499939462465184
1.499939719279445
1.499939930288793
1.499940041268736
1.499939914686691
1.499939565140258
1.499939262318251
1.49993838261512
1.499939246793552
1.499937105012317
1.499942728481623
1.856194124423919
1.499889959041182
1.497775905402731
1.478736279993579
1.399988030926613
1.189000338129527
0.8254282628243568
0.5227915177555811
0.3856032142270905
0.3407643826227432
0.3384898176920279
0.3388496336831303
0.3447928292011497
0.3577915434118751
0.3763899009521907
0.3989685080665985
0.4240695361187749
0.4504702289023043
0.477135454308413
0.5031879447051908
0.5279023223814101
0.5507117202511493
0.5712093491894235
0.5891348230356107
0.6043457034691584
0.6167817993948019
0.626422845360486
0.6331719142428658
0.6376215722131823
0.6396065620275609
0.6433807250497395
0.6446373388555044
0.6439721372705721
0.6410791557056702
0.6364324652967374
0.6303018361031996
0.6228859025740411
0.6143408628652076
0.6047998176675432
0.5943895657848345
0.5832460459268228
0.5715305227002891
0.5594479004885735
0.5472642535479504
0.535317365055895
0.5239826397085513
0.5136603675995389
0.5046964982108987
0.4972621135288924
0.4911921825117811
0.4858828935089202
0.4804751042461847
0.4749077635571472
0.4709828315969519
0.4704572157195022
0.4751266928637684
0.4913981144978025
0.5464451899082009
0.6696822644560515
0.8698729376728392
1.08628824416335
1.247866337658124
1.359280172311372
1.425485074717243
1.46160861925771
1.482080834454468
1.493271805837883
1.498119020982993
1.499664410710528
1.49994173559972
1.499936219882599
1.499971759146928
1.499950510096274
1.499941715244547
1.499941466660351
1.499944944689091
1.499944610775855
1.499945521975208
1.499946881345237
1.499948145729366
1.499950486012134
1.499955499612654
1.499962022409322
1.499964672797017
1.499963088417094
1.499959583095158
1.499955193585405
1.499949896862738
1.499943970836173
1.499938177305084
1.499933327624071
1.499929163194901
1.499924644504637
1.499922069403868
1.499925242907995
1.499934154925956
1.499940398100337
1.499940508245412
1.499941382783768
1.499942080630046
1.499942431834124
1.499942258044811
1.499941431363314
1.49994062460741
1.499938275134118
1.499940381014516
1.499934818902014
1.499977651054143
0.1470349825471921
1.499906456413081
1.498511309307438
1.485932256358579
1.433576559133511
1.289510431995682
1.001306297246134
0.6752743590194109
0.4813739602580193
0.4025357630561778
0.3806618217190472
0.3827853832810985
0.3855676244004688
0.3942203762953308
0.4093052097050009
0.4295685385391184
0.4535384739607919
0.4799535530084824
0.5077298837819549
0.5358907671315578
0.563501745890766
0.5895779393607844
0.6129007094007269
0.6316886335972918
0.6436674511253335
0.6564998079177922
0.6668674090531809
0.6765344128705867
0.6854003874314429
0.6934808333720842
0.7008140744774389
0.7074511143462922
0.713450397242674
0.7188753952436789
0.7237933865941589
0.7282748870042521
0.7323933527697797
0.7362252185006053
0.7398502479202074
0.7433516809840653
0.7468085599667376
0.7502702582629448
0.7537552639618831
0.7570143357354161
0.764807095461202
0.7666678497439411
0.7630875554099265
0.7562854115542254
0.7475185990891867
0.7374952969667793
0.7265518927674707
0.7147820694603504
0.7019894345455084
0.6879398381084161
0.6722772627896796
0.654845174385463
0.6365295963165881
0.6201434003281447
0.6084423472112369
0.605167283894175
0.6153158415245773
0.6719274825381537
0.8151150841061447
1.038304319775644
1.239990185278742
1.367118085835836
1.4340888494917
1.468920744710012
1.489125755576271
1.498159393832084
1.500152609394153
1.500032776385051
1.499944435753981
1.499959119516729
1.499939627980994
1.499940418055372
1.499941969388552
1.49994241565933
1.499943268405812
1.499944158308303
1.49994559657691
1.49994892369371
1.499953815001147
1.499956365071799
1.499955959725575
1.499954066538524
1.499951358304552
1.499947689801693
1.499943166937223
1.499938369070724
1.499933770926584
1.499929129093142
1.499924295698852
1.49992151147371
1.499924710355423
1.499933942292158
1.499940420840711
1.49994049987027
1.499941402863805
1.499942127573475
1.499942453211565
1.499942281800417
1.499941448063893
1.499940656597719
1.499938266869915
1.499940426325572
1.499935413900495
1.500063426884598
0.9025024675642995
1.499913291454813
1.49881614973444
1.488921215269416
1.447698074101126
1.334730191931585
1.108114101682394
0.7958423535358966
0.5569778794490226
0.4433023436731915
0.4045988204540798
0.4051345863803154
0.4054394746125799
0.4113284869370335
0.4247959371766768
0.4445859945482022
0.4690270876420676
0.4966312793217323
0.5261083862679445
0.5563076895006354
0.5861464338472213
0.6144849692988191
0.639879177753132
0.660115676565626
0.6746054806932941
0.688430247395374
0.7005763743011553
0.7120137179505809
0.7227029434776271
0.7326494172841199
0.7418871143629612
0.7504676259547157
0.7584529362508352
0.7659107209896925
0.772911343487395
0.7795259867046355
0.7858255359485324
0.7918799318866406
0.7977577918466006
0.8035257948679742
0.8092425059412206
0.8149371568184183
0.8206035799085669
0.8262163540486351
0.8317378081508887
0.8371265751970632
0.8423593756957051
0.8474476818284585
0.8524495146051961
0.8574620960820161
0.8622747933728814
0.8740456647537332
0.8744460024689186
0.8705077729537818
0.8625159304388795
0.8518228527888706
0.8393905003004627
0.8257032235547067
0.8110770222181856
0.7955483325101672
0.7772418621464454
0.7572991219467036
0.7430387250873965
0.7547444112936166
0.847339986722368
1.039057547952553
1.240798388784099
1.374133023760734
1.444358653171026
1.480649153236236
1.498046935235187
1.501796613231611
1.500595194972146
1.499957179575309
1.499953327826046
1.499941141283276
1.499941823140132
1.499942871406951
1.499943601876726
1.499944306458243
1.499945597329753
1.499948870784506
1.499953891699394
1.499956406164467
1.499955800829214
1.499953710502224
1.499950902146776
1.499947268843642
1.499942937990707
1.499938511215051
1.499934422560832
1.499930383396457
1.499926232868228
1.499923873140185
1.499926638724342
1.499934567887528
1.499940124651026
1.499940175190501
1.499940895036985
1.499941494130426
1.499941844203144
1.499941782383769
1.499941099972408
1.499940420303413
1.49993827979403
1.499940379300959
1.499937011708894
1.500205243159754
0.5150995522173861
1.499920138457765
1.499121551951125
1.491916547719064
1.461823807755196
1.378281454287659
1.204034111255236
0.9324055382467741
0.6751317360409889
0.5269526855955543
0.4673714312963616
0.4608145716245093
0.4518577240633625
0.4502963809367244
0.4585269934142433
0.4750139534951899
0.4975549447071203
0.5243331795049153
0.5538414862120836
0.584765936669608
0.61587842084601
0.6458711150909003
0.6730319573839398
0.6946252462125124
0.7081432570279457
0.7228045054498755
0.7362993675010628
0.7491585702853429
0.761307071372345
0.7727232756348662
0.7834235315213109
0.7934477665772663
0.8028506004331012
0.8116955836024556
0.8200508289545885
0.827986578751022
0.8355731765523867
0.8428802004045952
0.8499769327265863
0.8569321600792708
0.8638103293506746
0.8706616228961057
0.8775134870624668
0.8843744133674633
0.8912468279894947
0.898133850238277
0.9050341798811867
0.9119439940435592
0.9188498202617441
0.9257094750616488
0.9324357406438312
0.9388717920138705
0.9448200858916719
0.9501192485726915
0.9546984800392997
0.9583372572126424
0.9645016785964887
0.9618345897376629
0.9519232133050763
0.9376269235978744
0.9210460461289417
0.9031641456122498
0.8835174533554176
0.8621293643301635
0.844168304399515
0.8527909803348259
0.9584396783148323
1.160101823564349
1.336802261048145
1.435761983499377
1.484850152091778
1.505503105690443
1.506527111655519
1.501850788622923
1.500020372398636
1.49995542429094
1.499943539545675
1.499942775491712
1.499944018735275
1.499945014339538
1.499946276009279
1.499949789188437
1.49995570873131
1.499958755531021
1.499958133839284
1.49995578359356
1.499952625134963
1.499948543616691
1.499943648654263
1.499938648010357
1.49993405425064
1.499929523600353
1.499924860266563
1.49992215328376
1.499925189065063
1.49993407769795
1.499940314177226
1.499940359987199
1.499941164296402
1.49994181205909
1.499942159796975
1.499942050830749
1.499941283512582
1.499940516891717
1.499938271080259
1.499940938452455
1.499937507881778
1.500404451104818
0.4791308820042872
1.499925525087435
1.499361823977215
1.494274477504024
1.472981899713008
1.413204353880209
1.284355750635905
1.064875392284859
0.8054035444866318
0.618835326576886
0.5260906519130983
0.4909957734205848
0.502762427691014
0.5066970619566527
0.5144054509089077
0.5289935749801631
0.5496468006631918
0.5748336531735343
0.6029931026998864
0.6326720877491587
0.6624984830228843
0.6910124368705266
0.7162917983657543
0.7352590043678475
0.7479799448702819
0.7619195349012741
0.7750821338105938
0.7875852346442606
0.7993415501508337
0.8103174307872292
0.8205253743888283
0.8300059161533901
0.8388148260668281
0.8470150705958756
0.8546736057074016
0.8618588396169807
0.8686410209517069
0.8750924197030108
0.8812859469982717
0.8872963184896834
0.8931985534601899
0.8990368495145081
0.9048067735629631
0.9105079545839901
0.9161664238342372
0.9218135602577504
0.9274922740798306
0.9332388988668356
0.9390772319593235
0.9450332840958054
0.9511353349155723
0.9574099896297511
0.9638671938415536
0.9704816930173038
0.9771761379222935
0.983803904503495
0.9900897333868603
0.9955148557716682
0.9998801702706661
1.001806145159823
1.002296808950822
0.9938305658190444
0.9804949699196425
0.9645332792489852
0.9471420073376122
0.9325371806815551
0.9298945757450949
0.9914362955346013
1.159833574827137
1.342919689275588
1.453429746444773
1.505560649497846
1.52086752858853
1.512604493923575
1.502587579975823
1.500029522503186
1.499950745002353
1.499946865992495
1.499945060629796
1.49994512950722
1.499946563000712
1.499950486546936
1.499956871052012
1.499960264127679
1.499959622668297
1.499957108378507
1.499953748390579
1.49994939446387
1.499944153923526
1.499938772068374
1.499933825847769
1.499928937781319
1.499923871708705
1.499920830910381
1.499924004406469
1.499933656650547
1.499940461289726
1.499940501049555
1.499941366982334
1.499942060560508
1.499942428059831
1.499942308828752
1.499941494368267
1.499940649161516
1.499938273840613
1.49994204499662
1.49993566483646
1.500647848929622
0.9278272050042454
1.499927668284502
1.499457424697104
1.49521294721429
1.477435806269337
1.427405130321716
1.319135888722043
1.132160402544139
0.8889049081722196
0.6876183857234002
0.5764318297836393
0.5315890677295382
0.5350746987592306
0.5341938225905432
0.537230337415685
0.5482791232121527
0.5664146890794111
0.5899058997993432
0.6170489474626971
0.6462932669637539
0.6762157599808984
0.7053709095794981
0.7319444170874192
0.7530666571314729
0.7643874840849001
0.7788267610137525
0.792297748103482
0.8051967041254953
0.8174027961024199
0.8288516830291895
0.8395351092983077
0.8494794312623016
0.8587319305063735
0.8673519725336915
0.8754043642550191
0.8829559844742223
0.8900727844328988
0.8968182778786105
0.9032552615719793
0.9094445010019273
0.9154419175956962
0.9212997486728527
0.9270556957989411
0.9327204549109042
0.9382911472998862
0.9437669302583529
0.9491461973847735
0.95443571513097
0.9596536819612679
0.9648222325481912
0.9699647236508587
0.9750993087166338
0.98024240452253
0.9854102462476516
0.9906194185193296
0.995873130280442
1.001145716555321
1.006356228450189
1.011419286894207
1.015816159545619
1.019557623886727
1.016610147782051
1.022859445625544
1.015290852631354
1.003869124347603
0.9918056549173471
0.983771542382055
0.989336494158036
1.045107954835947
1.209109382983207
1.393143472022613
1.497356677867145
1.539759300720953
1.538485015650263
1.515462469897362
1.501784237212686
1.499958012733215
1.499943526952299
1.499944534776046
1.499945756267128
1.499946635208682
1.499950153850139
1.49995725697352
1.499961038553587
1.499960486173984
1.499957911587338
1.499954432082151
1.499949928476813
1.499944472042598
1.499938888249249
1.499933796964259
1.499928794090169
1.499923609007613
1.499920487023567
1.499923712659909
1.499933547932717
1.499940470088888
1.499940503883978
1.499941375237682
1.499942082809897
1.499942454693569
1.499942322053395
1.499941531223205
1.499940722033951
1.499938299428677
1.499944105055321
1.499930156259776
1.50095213820745
0.08110441504899628
1.499930821048257
1.49959806419393
1.496594019310362
1.483998640402992
1.448368285721044
1.369981013936022
1.230714980654146
1.031909451450646
0.8317411740530563
0.6956421420286788
0.6304499501645192
0.6188392434717767
0.6091057167363269
0.6028390820089551
0.6067214844713724
0.6198968609012655
0.6400294361206816
0.6648629764318776
0.6924013131320861
0.7208551618995539
0.7484364449578992
0.7729380854808293
0.7910136011486203
0.8036972237910408
0.8182190382629149
0.8321506827188661
0.8454083825915009
0.8578927890914232
0.8695501128147627
0.8803833798379334
0.8904315109204866
0.8997537243504805
0.908419854694505
0.9165043627749571
0.9240819076155662
0.9312249070530102
0.9380022055758962
0.9444766471543661
0.9507065723077219
0.9567475306461344
0.9626423319059118
0.9684051891893624
0.9740298307105208
0.9795077332428208
0.9848330651917931
0.990001985119364
0.9950138552591303
0.9998727633167197
1.004577115849154
1.009115570734955
1.013474924317853
1.017637375315873
1.021572392071715
1.025232580892033
1.028549263152449
1.031466600595065
1.033960886226821
1.035984733148894
1.037302536649416
1.037920166300761
1.037910597757734
1.036716006658179
1.033194998245366
1.035498408165751
1.026754919947174
1.018593587057824
1.019025496917497
1.040421971549244
1.119319545037282
1.302874620297255
1.475049041644102
1.558732435453914
1.576256386772573
1.547068592093632
1.51176734893339
1.500627116269694
1.499942473366866
1.499947789651349
1.499945596360211
1.4999468439465
1.499950713054069
1.499957963423333
1.499961944547267
1.499961285748028
1.499958551341659
1.499954933263689
1.499950283112613
1.499944694971986
1.499938985134533
1.4999338098
1.49992875351006
1.499923512590266
1.499920306010426
1.49992351129243
1.499933469236744
1.49994047276535
1.499940491683519
1.49994135217875
1.499942040850276
1.499942403400642
1.499942241636943
1.499941448239385
1.4999408230296
1.49993833119875
1.499947082909485
1.499921696798264
1.50133653572458
0.9125399094034223
1.499931889967174
1.499645748951377
1.497062330703096
1.48622536821721
1.455497138493553
1.387331788329506
1.264448855604026
1.083567668979338
0.8853922676303544
0.7367521905499994
0.6570208824492501
0.6304926373701376
0.6302151370876956
0.6262736001868321
0.6291405875556803
0.6403708483492725
0.6584668798824747
0.6814568401834473
0.7074203353635569
0.7345647909705095
0.7610957400367621
0.7848703637090696
0.8028645349119181
0.816263639069286
0.8312595521167185
0.8453119529004194
0.858686979111172
0.8712870869087925
0.8830521336011569
0.8939707115565381
0.9040726586590466
0.9134104951544099
0.922047247588282
0.9300507768195255
0.9374898161597552
0.9444320586509855
0.9509450263433818
0.9570951627597422
0.9629456070234458
0.9685541882512307
0.9739643473561319
0.9791923327428221
0.9842341919476293
0.9890825666014823
0.993728959109948
0.9981653696308799
1.002386895439324
1.006384254852126
1.010148898950834
1.013676980170936
1.016962122803224
1.019993939249147
1.022754555085133
1.025219511036028
1.027411260155309
1.029345168195352
1.030975798647412
1.032243744908986
1.033077666423552
1.033171936199066
1.032843557719388
1.032028758843424
1.030797940124645
1.027672161142108
1.033658037200014
1.030390508613521
1.031264682210474
1.049220045625842
1.10176365406588
1.212880722193897
1.417521808525216
1.569865569662948
1.619274120940935
1.598172664108714
1.538740689561211
1.504694858884392
1.500017159371745
1.499944421679534
1.499946618856816
1.499946790159168
1.499950298099723
1.49995818015683
1.499962478855225
1.499961940708117
1.4999591853144
1.499955490537212
1.49995073108672
1.499944968084017
1.499939091601256
1.499933796494455
1.499928649202897
1.499923317698827
1.499920064222294
1.499923322420418
1.499933400051491
1.4999404668081
1.499940479306226
1.499941332353464
1.499942016316292
1.499942378678909
1.499942213507401
1.499941350957604
1.499941068323044
1.499938356121986
1.499949551252411
1.499907688324864
1.50175655892748
2.622779732479932
1.499933297213354
1.499708525782289
1.49767897336493
1.489159952651671
1.464929357333671
1.410560924437323
1.30997825500601
1.155681840218992
0.9703958467711129
0.8132971608668096
0.7177406845736439
0.674028803023159
0.6815733643190577
0.6804573914566242
0.6814512330124139
0.6898608662018904
0.7053746793066984
0.7263890503983264
0.7510357516091625
0.7773832932034435
0.8032821574317824
0.8259016560143465
0.8370080957947701
0.8501541432156609
0.8630704688823896
0.876542430009247
0.8894648022466658
0.9016864384359137
0.9131169109775936
0.9237137249286788
0.9334881773609724
0.942483543894884
0.9507621020907085
0.9583931487713486
0.9654481541136255
0.9719970184656742
0.9781085810908875
0.9838476725493652
0.989273592153239
0.9944414180642482
0.9993930454642824
1.004138412267048
1.008661236765351
1.012942845393681
1.01696545940076
1.020710196688575
1.024157601435715
1.027297522067696
1.030122859608958
1.032623619112175
1.034786868477309
1.036597884064355
1.03805224684269
1.039154565346538
1.039804014725276
1.03986263739389
1.039249762437146
1.037904254042734
1.03582426251027
1.033042043920978
1.029341428748126
1.025432714222345
1.021305499965878
1.017980993145134
1.014125015407239
1.02466201825556
1.030132588300884
1.046034975624038
1.092163832161372
1.192120111730205
1.352830276719181
1.555101498204441
1.660850975619537
1.660995276819591
1.588644255152275
1.519035679598729
1.500815810950181
1.499940782666736
1.499945854409397
1.499947120508453
1.499950553989967
1.499958393389365
1.499962835884358
1.499962209717222
1.499959365809709
1.499955622129226
1.499950823675912
1.499945051728959
1.499939165669307
1.499933879584887
1.499928756226425
1.499923434328734
1.499920124167767
1.499923301368047
1.499933373935557
1.499940460373046
1.499940465958378
1.499941320447778
1.499942003572214
1.499942389552245
1.499942272047972
1.499941259899556
1.499941535482114
1.499938367677319
1.499953845423619
1.499877747388823
1.502356220043204
0.1426278861303094
1.499934050316516
1.499742121498707
1.49800902093927
1.490732423469001
1.470015714929976
1.423417248164792
1.33689498520775
1.202811361118423
1.033224224021337
0.8761482745208327
0.771974484919785
0.7233558793358245
0.7213880472615153
0.711869195666467
0.7062542581096624
0.7099293348551827
0.7219662416518182
0.7402495549406914
0.76256907013941
0.7868359414147456
0.8109726397168245
0.8325319592206242
0.8477922695423589
0.8593197636462967
0.8735788735663974
0.8873397467904662
0.9003604286223201
0.9125872512006493
0.923990899918815
0.9345339302750957
0.9442323760636085
0.953130830995484
0.9612871643645599
0.9687654035808638
0.9756308252731496
0.9819475682108235
0.9877778975267981
0.9931802913065702
0.998207896071759
1.002909038110685
1.007320288890295
1.011452905683418
1.015297974945804
1.01884068997275
1.02206180141555
1.024942168919147
1.027467110399996
1.029620178646913
1.031382935748303
1.03273428302234
1.033649245090628
1.034097783806004
1.034038274341197
1.033420880624599
1.032249757390364
1.030539037909144
1.028272644509848
1.025436966113
1.022003408263226
1.017966725329905
1.013141311656669
1.008116437576584
1.003370087727878
0.9995521626442396
0.9974069527258236
0.9996026863318951
1.018251432561799
1.035028191282362
1.075923126070708
1.164989291264325
1.325469548165194
1.528851465492371
1.69107879345944
1.727765690465249
1.659033689614468
1.550897690121623
1.504489770765211
1.499976939945469
1.499946975824436
1.49994680954573
1.499950005457635
1.499958341684431
1.499962971244944
1.499962442002955
1.499959599624426
1.499955827639145
1.499950997511164
1.499945163527692
1.499939243272235
1.499933969715004
1.499928899695832
1.499923655475103
1.499920429537569
1.499923596709716
1.499933479970625
1.499940391622563
1.499940390216797
1.499941212627298
1.499941876739337
1.499942262131565
1.499942276719244
1.499941070800985
1.499942004080154
1.499938378740438
1.499960707647295
1.499841203549905
1.503118684448726
0.47689571052546
1.499934904951863
1.499780249923788
1.498383626421699
1.492517252778113
1.475782074083414
1.437861657495904
1.366133299540975
1.252064503890276
1.101258650063933
0.9487261942857994
0.8361566120604962
0.7766366834140785
0.7613733319671452
0.7525600450806005
0.7488717813032681
0.7512226505642583
0.7608049471818562
0.7762698512381944
0.7955919559529959
0.816606033345187
0.8370064434096606
0.8539788695249808
0.8632853622198153
0.8815601013000797
0.8964977562886787
0.9106323202356005
0.9236626030241963
0.9356812434948819
0.9467624402772068
0.9568984212327942
0.9661229447159336
0.9744915588703051
0.9820696979825462
0.9889255939587814
0.9951257581617355
1.000733945556467
1.005810163674529
1.01040874887641
1.014580266215876
1.018372080318471
1.021823389529541
1.024954087341003
1.027759372116833
1.030223490337126
1.03233068235716
1.034068125797091
1.035426561755876
1.036396362952378
1.036965364439035
1.037116580178536
1.036827900176697
1.036071496599341
1.034813203118959
1.033006902938409
1.030591307376399
1.027517698058174
1.023748281077599
1.01923820972772
1.013960122401178
1.007948311709834
1.001180354985457
0.99423591172755
0.9877277833221547
0.9824981511873533
0.9800220232610843
0.9787730553933496
1.001607769127685
1.022188539346647
1.058509577935719
1.138825530562092
1.287784108686467
1.501587907765009
1.731118838121125
1.791165474618878
1.739267950356413
1.60477159450341
1.515107846472955
1.500305691045729
1.49994278752983
1.499947297519024
1.499950135109511
1.499958309537061
1.499962998216117
1.499962366552591
1.499959456458223
1.499955670534738
1.499950860471328
1.49994510637011
1.499939284960676
1.499934135172902
1.499929223698735
1.499924163001005
1.499921044532411
1.499924110474275
1.499933665755997
1.499940295651186
1.499940273197361
1.499941025090981
1.499941605099172
1.499941894764703
1.499942013141696
1.499940584027815
1.49994223716876
1.499938397812034
1.499958848994535
1.499825627204565
1.50408854051332
2.688567575953794
1.499935550262923
1.499809035443264
1.498666452234595
1.493865354594759
1.480147627466004
1.44890158518694
1.388987840209687
1.29116451651386
1.155488218255436
1.006819664974922
0.8857879844363016
0.8130504798577345
0.7857862995070477
0.7864094483319952
0.7796791754754961
0.7777650452912541
0.7833812521864024
0.7955324855868143
0.812204144134665
0.8311043586730946
0.8497290807047053
0.8649848074998364
0.8725390635978043
0.8904386874167453
0.9052547504403151
0.9193033719774634
0.9322063251909832
0.9440718225995591
0.9549994616505488
0.9649646955770756
0.9739912709719867
0.9821283874581173
0.9894368676789185
0.9959809968780521
1.001823238129457
1.007022995813643
1.011634291912296
1.01570390075463
1.019270999325066
1.022369867209637
1.025035014893055
1.027297226607614
1.029171856536387
1.030658182338557
1.03175148823261
1.032447008260826
1.032736192048808
1.032603330275701
1.032026363095329
1.030977849734064
1.029428899462704
1.027350364777761
1.024705815360365
1.021458034731023
1.017578841853504
1.01304165137391
1.007837207758099
1.001985116773073
0.9955403709277921
0.9886251390505784
0.981429731993311
0.9740336437796606
0.9674047587304411
0.9622883642011019
0.9596890905781402
0.9630818794431851
0.9821232692489812
1.001102585029803
1.038633086209397
1.114536854580539
1.256083289143555
1.474794018718804
1.706760835388187
1.824079350604027
1.817954924874667
1.679069756197199
1.539041362633034
1.501719982179123
1.499940262898873
1.499946369363807
1.499949664032947
1.499958002067526
1.49996279322445
1.4999622752963
1.499959400495727
1.49995563308599
1.499950851693812
1.49994511175354
1.499939337220017
1.499934275020136
1.499929497229922
1.499924615478509
1.499921676379043
1.499924722318634
1.499933900649898
1.499940174029476
1.499940132791315
1.4999407968665
1.499941291822333
1.49994143919121
1.49994168945683
1.499940005659747
1.499942462568878
1.499938401390544
1.499951758981444
1.499792548135779
1.505435030377381
0.5914379785983486
1.499935904298516
1.499824831390575
1.498821670616028
1.494605464147095
1.482546690900515
1.45498327272757
1.401645529986929
1.313143810404389
1.186942586980772
1.040877209183212
0.9135410521238951
0.8306592552219145
0.7890564616674673
0.8042883372433299
0.8030960515093362
0.802060852866783
0.8066283965440373
0.8170128756578624
0.8317138273109639
0.8486150135251767
0.8652362471030784
0.8784714205909363
0.883918521264948
0.9030769837730552
0.9177389642825159
0.9315488534309764
0.9441579245929614
0.955706257945256
0.9663309242117014
0.9760026787908183
0.9847410151896239
0.9925905188809339
0.9996064142181664
1.005845949030475
1.011364701373914
1.016216040342369
1.020446914691317
1.02409475626792
1.027191379745945
1.029763479187519
1.031834023851321
1.033429638168871
1.034583279633694
1.035328097354367
1.035687527487771
1.035669115507483
1.035263425977121
1.034445039601346
1.033174615073633
1.031405597650864
1.029080323613814
1.02613044121452
1.022496222193004
1.018127688643405
1.0129796284304
1.007014721225631
1.000200477217606
0.9925428588873861
0.9841037942933795
0.9749997324671889
0.9655117370226624
0.9559400415797835
0.9472858617447456
0.9406450543675183
0.9371593826822642
0.93720121044994
0.9540383689188914
0.9778385901072369
1.021565726948604
1.092935138357858
1.226984038254907
1.439811836906952
1.691646084152596
1.861757633397027
1.891391245072348
1.765482138935477
1.58051495378826
1.505920549252513
1.499972292239309
1.499946494366967
1.499949818104667
1.499957991941425
1.499962872542195
1.499962250395471
1.499959313946377
1.499955533694923
1.499950764301111
1.499945083392629
1.499939376895971
1.499934400787366
1.499929735960311
1.499924985332718
1.499922118922338
1.499925090912942
1.499934038175925
1.499940107555347
1.499940047097909
1.49994065271429
1.499941092330028
1.499941114612807
1.499941543972158
1.499939589377359
1.499942785731398
1.4999383683659
1.499947807271155
1.499718258801085
1.507310172104767
0.6770078725366142
1.499936205727925
1.499838277801616
1.498953802918587
1.495235675623903
1.484592303804536
1.460192549150418
1.412611354886232
1.332633848732584
1.21684533389209
1.079046646352562
0.9535315317464246
0.8670150289289774
0.819684172501571
0.8332911799578274
0.8328222627934234
0.8301362856605008
0.8326755244547793
0.8411122132803166
0.8540447136666477
0.8693258632484485
0.8843680569964577
0.8958433502786366
0.8993658632492083
0.9173203227723645
0.9313094154076992
0.94459402707023
0.9567013127278796
0.9677490558289982
0.9778787888270218
0.9870498843678188
0.9952729002847379
1.002590204916447
1.009060816085258
1.014743178539511
1.019688431140138
1.02394268332545
1.027545653018711
1.030529938138917
1.03291921552708
1.034729115035954
1.035978943074131
1.036685007946881
1.036875668560244
1.036595806843568
1.035877755714778
1.034736675405703
1.033166201127931
1.031135534166006
1.028585650881214
1.025449373034066
1.0216720400613
1.01720681235294
1.012009231776697
1.006042208445194
0.9992839661058486
0.9917343321329742
0.9834297539302801
0.974446172651211
0.9649074421432511
0.9550363068164157
0.9451493732487962
0.9355250675027085
0.9270410260568538
0.9207989430294509
0.9182957757150273
0.9208113822781537
0.9416657416528758
0.9656231755206485
1.004565857197216
1.070945049096092
1.197461596697996
1.408388669985584
1.682558316246634
1.873600162831811
1.93824418177541
1.853527305371771
1.642353138070149
1.515920912041139