/*--------------------------------*- C++ -*----------------------------------*\
| =========                 |                                                 |
| \\      /  F ield         | OpenFOAM: The Open Source CFD Toolbox           |
|  \\    /   O peration     | Version:  v1812                                 |
|   \\  /    A nd           | Web:      www.OpenFOAM.com                      |
|    \\/     M anipulation  |                                                 |
\*---------------------------------------------------------------------------*/
FoamFile
{
    version     2.0;
    format      ascii;
    class       volScalarField;
    location    "0.00000156";
    object      k;
}
// * * * * * * * * * * * * * * * * * * * * * * * * * * * * * * * * * * * * * //

dimensions      [0 2 -2 0 0 0 0];


internalField   nonuniform List<scalar> 
44064
(
7.143496020974909e-07
1.984503780267034e-05
0.0001307547006584761
0.0004563025361634542
0.001125881935767614
0.002176141988414411
0.003452548583863221
0.004704687158598755
0.005786077602498057
0.006683997764441924
0.007407481986519574
0.007977125860038365
0.008418227396810902
0.008755026319705966
0.009008257073766925
0.009194656936603792
0.009327326352797365
0.009416353447385232
0.009469443074190013
0.009492457437024362
0.009489849417635457
0.00946499823466933
0.009420465206399121
0.009358187383345921
0.009279624095272705
0.009185868273617779
0.009077731562311642
0.008955809963360125
0.008820535029047403
0.008672214333574386
0.008511064038895167
0.008337235726711351
0.008150839226524632
0.007951962836932126
0.007740692000929537
0.007517126986070263
0.007281399210094882
0.007033684330457636
0.006774208109490763
0.006503239117724896
0.006221062759892407
0.005927938409121415
0.005624062559648426
0.00530960302527371
0.004984930925355976
0.004651224305483695
0.004311527788089739
0.00397186139301391
0.003640875634290823
0.003325632247130228
0.003022368560065243
0.00272489235445745
0.002433291880173161
0.002149655436973567
0.001876056922860359
0.001614599265637129
0.001367435118261805
0.00113668326768367
0.0009242790137836155
0.0007318437419027939
0.0005607385938089589
0.0004122714667442191
0.0002876995320189456
0.0001878596134999733
0.0001126592347888564
6.065420083317808e-05
2.877178187932669e-05
1.20384375339104e-05
4.549814034651247e-06
1.610711313641559e-06
5.67639620983791e-07
2.265136040983398e-07
1.230115277049123e-07
9.384897323011577e-08
8.623450686499309e-08
8.439693290708158e-08
8.398794707368059e-08
8.390420149500053e-08
8.388845384257187e-08
8.388569024697641e-08
8.388518735280123e-08
8.388503992673643e-08
8.3884940702654e-08
8.388484523471221e-08
8.388474825862507e-08
8.38846497661739e-08
8.388455029608787e-08
8.388445371137625e-08
8.38843450755082e-08
8.388425495049043e-08
8.388417353050951e-08
8.388407734308359e-08
8.388399448771674e-08
8.3883915254196e-08
8.388383931522626e-08
8.388377385048718e-08
8.388371538460874e-08
8.388364968884161e-08
8.388360932866589e-08
8.388358387689658e-08
8.38835570496292e-08
8.388353850552785e-08
8.388352941277597e-08
8.388353565424917e-08
8.388530494111285e-08
8.444641950338395e-08
2.092138854958151e-07
2.109440297586324e-05
3.496635528491332e-07
9.714139254777084e-06
6.403300504009891e-05
0.0002244932170466285
0.0005644704933080885
0.001142451318738143
0.001948420534479961
0.002875093582368628
0.003783247700678366
0.004589317708413978
0.005277419596760332
0.00585523696328863
0.006332848687876874
0.006723856632122398
0.007042505247658918
0.007301861852094936
0.007513088855336019
0.007685343651846815
0.007825963854627613
0.007940747388478213
0.008034236417608366
0.008109968438973195
0.008170684466303002
0.008218495824805602
0.008255015220833726
0.008281458510921909
0.00829872315800103
0.008307448679495249
0.008308063699910929
0.00830082241140173
0.008285833639053823
0.008263078985743195
0.00823242694281289
0.008193643315261677
0.008146399240345539
0.008090276985760262
0.008024773837868992
0.007949304422700077
0.007863201928394353
0.007765719037274767
0.007656030077259683
0.007533237085380107
0.007396384041950086
0.007244484759769578
0.00707656906129421
0.006891746510071192
0.006689274209759633
0.006468592481933593
0.006229266572926744
0.005970776264959077
0.005692187775921877
0.005391972683295341
0.005068325704428485
0.00471998754439323
0.004346990375368849
0.00395131303576482
0.003538073840062623
0.003117209731832267
0.002703786827515723
0.002313450537334311
0.001948553272958534
0.001602990195403246
0.001277655400779872
0.0009777293818330356
0.0007082524845247551
0.0004767872232532097
0.0002910955956778534
0.0001554470546670069
6.886227315082553e-05
2.40119653132922e-05
6.6976336181251e-06
1.649454345904909e-06
4.154602512430037e-07
1.409646117344067e-07
8.367236469572586e-08
7.235812546568052e-08
7.023930268696134e-08
6.986264990352386e-08
6.979857855055633e-08
6.978741827516479e-08
6.978460198079891e-08
6.978293383684926e-08
6.978132767630545e-08
6.977963460820815e-08
6.977784064199001e-08
6.977595041340123e-08
6.977397078540258e-08
6.977191684718961e-08
6.976978399542719e-08
6.976755922340926e-08
6.976538025510094e-08
6.976321151507687e-08
6.976102308391088e-08
6.975881357533738e-08
6.975659587265795e-08
6.975438795354001e-08
6.975218710481103e-08
6.975012560617332e-08
6.974851223302844e-08
6.974712416969537e-08
6.974599806852808e-08
6.974520549782406e-08
6.974482148317832e-08
6.974523520531748e-08
6.991859533722183e-08
1.240321059422651e-07
1.191002229354706e-05
0.001714787493462647
2.514035828213033e-07
6.984411730981407e-06
4.604896827160681e-05
0.0001616577354682958
0.0004084509671174355
0.0008369227458303724
0.001460190045288465
0.002221006131247386
0.003013257502416452
0.003747925404453648
0.004388927627619999
0.004939157832912463
0.005402916225513802
0.005788791542951363
0.006107596044466998
0.006370274835602708
0.006586776429023536
0.006765629782274041
0.006913912238677226
0.007037396991328317
0.007140760480161258
0.007227785960832372
0.007301525836667775
0.007364390985387296
0.007418124153688043
0.007463936151560305
0.007502342584437533
0.0075337550550163
0.007558499183162345
0.007576823951643087
0.007588909417924445
0.007594873073156025
0.007594775139729362
0.007588623085631989
0.007576375631438743
0.007557946532175812
0.007533208439915518
0.007501997197266742
0.007464116982819956
0.007419346833981271
0.007367449213426697
0.007308181460097783
0.007241311221368147
0.007166465339752875
0.007082959145734807
0.00698982882702179
0.00688587447170497
0.006769734938496725
0.006639931062287599
0.006494883253915147
0.006332906336664599
0.006152180276072942
0.0059506891160105
0.005726118656462493
0.005475728202299388
0.0051963222111017
0.004884731797926026
0.004539047824183562
0.004159710693595158
0.003749730691989511
0.003315074727751471
0.002866541204944559
0.002421292789780428
0.001999483093686769
0.001606154651762918
0.001237229497438148
0.0008959854489826731
0.0005943836984414038
0.0003486192427756412
0.0001718304048610025
6.609117817386222e-05
1.847434672128087e-05
3.923779096276952e-06
7.523142143240759e-07
1.740108088978063e-07
7.780618540770832e-08
6.285668910896964e-08
6.066847278158709e-08
6.036407694900111e-08
6.032256098830835e-08
6.031582490037722e-08
6.031338033312809e-08
6.031134257631023e-08
6.030924106914038e-08
6.030702392288525e-08
6.030468932870424e-08
6.030223992617683e-08
6.029968872759108e-08
6.0297032415752e-08
6.029425191243393e-08
6.029155568307975e-08
6.028882805876895e-08
6.028603557623083e-08
6.02831826932154e-08
6.028028819313986e-08
6.027737529994411e-08
6.027445641113341e-08
6.027165810149173e-08
6.0269274215827e-08
6.026716606490835e-08
6.026540167960977e-08
6.026408103976546e-08
6.026332307371255e-08
6.026482802223859e-08
6.103731814810699e-08
2.738253732335259e-07
3.934026659641728e-05
0.003946868768539331
2.023079326587354e-07
5.620481212764506e-06
3.706037296023447e-05
0.0001301909144134469
0.0003297614847978948
0.0006800376310918434
0.001201411618131485
0.001860797866808858
0.002574960987656701
0.003259372283284802
0.00386903414924146
0.004397433752295082
0.00484801762476974
0.005226630343987961
0.005541860380228232
0.005803164152714592
0.006019578622986628
0.006199112869679276
0.006348574447684287
0.006473623060551765
0.006578919327126638
0.006668289599822899
0.006744853761944776
0.006811065816764579
0.006868720126725585
0.006918946614690931
0.006962316326696577
0.006999303007758259
0.007030295321276909
0.007055606940635398
0.007075484767199874
0.00709011554154036
0.007099631096153139
0.007104112467444105
0.007103593052071913
0.007098060962146733
0.007087460706876622
0.007071694305002808
0.007050621911948762
0.00702406202611573
0.00699179131320251
0.006953544042305799
0.006909011077963908
0.006857838303026235
0.006799625152485588
0.00673392483774379
0.006660247728401274
0.006578069261407848
0.006486843718192483
0.006386026064936388
0.006274903289729783
0.006152186852085485
0.006016082270568073
0.005864375082701431
0.005694501170856038
0.00550360962664431
0.005288653746244278
0.005046514339510193
0.004774111675892441
0.004468473842203811
0.004126895542999279
0.003747754579787176
0.003332501395076535
0.002888888209165268
0.002433353268502397
0.001989098903209572
0.001572352862779119
0.001180781606917806
0.0008164760026084087
0.0005002292373085802
0.0002568755177323774
0.0001019232802462044
2.828737138479127e-05
5.478621075319467e-06
8.930533166222588e-07
1.706067402599764e-07
6.870835893590737e-08
5.539291712821284e-08
5.376640929901852e-08
5.357837306953484e-08
5.355625947880568e-08
5.355210362790348e-08
5.354968603526884e-08
5.354731971882911e-08
5.35448389879161e-08
5.354223210364752e-08
5.353949998264185e-08
5.353665502933706e-08
5.353369782776939e-08
5.353061037578855e-08
5.352756434511394e-08
5.352447568898964e-08
5.352131487648105e-08
5.351809105546652e-08
5.35148258208945e-08
5.351154394236177e-08
5.350826269936694e-08
5.350509604520025e-08
5.350231505662051e-08
5.34998523848587e-08
5.349778465626179e-08
5.349622292147874e-08
5.349531260780165e-08
5.350168053957608e-08
5.608478914824205e-08
6.825127749923942e-07
9.911121532203964e-05
0.007655297724952346
1.627241071528035e-07
4.520788967265698e-06
2.981173623572665e-05
0.0001047837523828981
0.0002659401563069283
0.0005513322162366062
0.0009844866943048674
0.001550255843514158
0.002187749616832667
0.002821535287935827
0.003400513690899335
0.00390839526127302
0.004347547915472002
0.004720849196303829
0.005034462484057192
0.005296199228107821
0.005514082416245741
0.005695543613965835
0.005847092124890612
0.005974260348062235
0.006081683723559282
0.006173222348932364
0.006252056986693227
0.006320693359636196
0.006380979832665132
0.006434002570933513
0.006480389245796349
0.006520666622707957
0.006555273895617429
0.006584573752217363
0.006608861421481478
0.00662837197627384
0.006643286150465754
0.006653734899118378
0.006659802894801288
0.006661531119809949
0.006658918683887204
0.006651923972165023
0.006640465208050035
0.006624420499289621
0.00660362742102141
0.006577882174498752
0.006546938347665197
0.006510505297513823
0.006468246170671636
0.006419775566027556
0.006364656811419496
0.006302398780954429
0.006232452078567436
0.006154204225445011
0.006066973163860431
0.005970000492110326
0.005862451321844406
0.005743427139350074
0.00561199888411794
0.005467186530550124
0.005306990100680998
0.00512854691389413
0.00492843793263011
0.004702879906675425
0.004447908556310293
0.004159573548433779
0.003834180542167765
0.003468729411129458
0.003062259997534078
0.002620809476305121
0.002164656713372359
0.001723010971775139
0.001306814359109861
0.0009147860849193861
0.0005630888104506219
0.0002855018404944394
0.000108254992324031
2.724847287423189e-05
4.56062716019252e-06
6.435524556384616e-07
1.194104984480127e-07
5.63584510612202e-08
4.931298269064666e-08
4.85755894147778e-08
4.850146149750259e-08
4.849261084209652e-08
4.848970328587322e-08
4.848719334661418e-08
4.84845895681202e-08
4.848185393998057e-08
4.847898515552349e-08
4.847599422948072e-08
4.847288399877606e-08
4.846963743248925e-08
4.84664003157857e-08
4.846310897836741e-08
4.845973814640848e-08
4.845630041167901e-08
4.84528194864449e-08
4.844932244772616e-08
4.844583110672051e-08
4.844245631907586e-08
4.843945496893557e-08
4.843679539808245e-08
4.84345607377495e-08
4.843286971498028e-08
4.843189635750562e-08
4.845175616583971e-08
5.554106785753353e-08
1.685550735223462e-06
0.0002303672329501739
0.01387009793815596
1.346013177436424e-07
3.739494601317103e-06
2.466109895521121e-05
8.671389751128016e-05
0.0002203979409642521
0.0004586877043056475
0.0008256641597510617
0.00131729958908522
0.001889973993746251
0.002478336713162247
0.003029147899174572
0.003518771756434362
0.003946996112948123
0.004315034181925209
0.004627116370306663
0.004889567614529723
0.005109403819071849
0.005293423837655542
0.005447763593087779
0.005577750252291201
0.005687918966135003
0.005782093803057805
0.00586345736527161
0.005934532875452042
0.005997205626007084
0.006052556887837111
0.006101268002575125
0.006143914457134851
0.006180980301541837
0.006212870208006691
0.006239919408782846
0.006262401781921473
0.006280536352376576
0.00629449244991967
0.006304393731282165
0.006310321237245179
0.006312315624277998
0.006310378599959784
0.006304473657659584
0.006294526338269797
0.006280424064837009
0.00626201550286215
0.006239109458931861
0.006211473361415721
0.006178831345425827
0.006140861932804101
0.006097195314687158
0.006047410221229814
0.005991030357080268
0.005927520388634432
0.005856281456822689
0.005776646188153797
0.005687873139522231
0.005589140425566838
0.00547953778973095
0.005358055326598367
0.005223567286050348
0.005074840452397226
0.004910589924839288
0.004728757862573012
0.004525982594646744
0.004297972361472044
0.004039957964801386
0.003747025420305008
0.003414588950405741
0.003039359470913592
0.002622032588884258
0.002176620034398247
0.001733215302825351
0.001310177718554769
0.0009077214821459661
0.00054354556717063
0.0002592953499958774
8.73814641641401e-05
1.834286868319648e-05
2.554155931001982e-06
3.272906060395325e-07
7.371528684527119e-08
4.737143724740252e-08
4.482018415536642e-08
4.458721608952632e-08
4.456535320883141e-08
4.456141464899971e-08
4.455879156736843e-08
4.455614028949626e-08
4.455336121045663e-08
4.455044684775086e-08
4.454740638576194e-08
4.454424403275427e-08
4.454094365652982e-08
4.453763220551681e-08
4.453425975845804e-08
4.453080432801821e-08
4.452728019145885e-08
4.452371162204091e-08
4.452012704099861e-08
4.45165511488607e-08
4.451308703279722e-08
4.450997253458843e-08
4.450721107040793e-08
4.450488818947838e-08
4.450312758755329e-08
4.450215971739612e-08
4.455457121726078e-08
6.157725147106035e-08
3.766824168540048e-06
0.0004422877203093852
0.02003924286705885
1.171853537882215e-07
3.255650425773634e-06
2.147112042245062e-05
7.551622564729393e-05
0.0001921130125468633
0.0004007897267790154
0.0007250801856774548
0.001166573844264277
0.001692468953004693
0.002245844156290633
0.002774538293151907
0.003250841302891796
0.003670073238518186
0.004033213441266478
0.004343186215007135
0.004605203748338531
0.004825511935504064
0.005010425407192794
0.005165795913722265
0.005296794635774338
0.005407878425232456
0.005502839950599
0.005584863696963503
0.005656510018417928
0.005719712823166731
0.005775651278486369
0.005825026008771603
0.00586843138835455
0.005906370054944873
0.005939265174489008
0.005967470638814993
0.005991279427131504
0.006010930380813847
0.00602661362461476
0.006038474837031189
0.006046618540437637
0.006051110549467002
0.006051979780864869
0.006049219505651912
0.006042787937452984
0.006032608222576827
0.006018567954512985
0.006000518234397451
0.005978272284870653
0.00595160363045851
0.005920243853210262
0.00588387991565618
0.005842151051148954
0.005794645222044627
0.005740895142328659
0.005680373868112138
0.005612489957771302
0.005536582215329438
0.005451914044995108
0.005357667482784416
0.005252937028605973
0.005136723347814011
0.005007924026133042
0.004865322329644475
0.00470757335794007
0.004533218676853476
0.0043401353325494
0.004124616454708176
0.003881700754041814
0.003605804161926011
0.003291234575286158
0.002933053076027622
0.002529346182227153
0.00209143714770455
0.001650878602429949
0.001227589738748709
0.0008231492568755823
0.0004625390057904142
0.0001959920041586148
5.402141060141249e-05
8.809290088914221e-06
1.026420167737639e-06
1.374707082326478e-07
5.009683753930486e-08
4.215810479227901e-08
4.148293250340934e-08
4.14272268252168e-08
4.142086108423603e-08
4.141806916075294e-08
4.14154003668842e-08
4.141261181233233e-08
4.140968835931207e-08
4.140663791527639e-08
4.140346566176243e-08
4.140015643956992e-08
4.139682310029964e-08
4.139342563620283e-08
4.138994482680124e-08
4.138639590284377e-08
4.138280310531751e-08
4.137919559572178e-08
4.13755994950164e-08
4.137210959050293e-08
4.136894974463652e-08
4.136614569710632e-08
4.136378884556408e-08
4.136199514086948e-08
4.136118743972936e-08
4.150423093444125e-08
8.57545007254845e-08
9.730878497599485e-06
0.0009677853999548906
0.03408310332575808
9.61224513678439e-08
2.670485323329944e-06
1.761273397133718e-05
6.196379265150677e-05
0.0001578047733153394
0.0003301681389857949
0.0006010172420391431
0.0009774207658350797
0.00143971046750701
0.001943801356425734
0.002441551760164169
0.002900577753889685
0.003309235176023224
0.00366805636032363
0.003977922313208446
0.004242291359798873
0.004466184669366172
0.004655149005521221
0.004814597432936
0.00494947851685446
0.005064160804149154
0.005162429151212708
0.005247502687824518
0.00532197968242272
0.005387848308650874
0.005446240680348568
0.005497927737855599
0.005543564275912186
0.0055837054942808
0.005618820991795324
0.005649306421215812
0.00567549307237853
0.005697655561227236
0.005716017803256299
0.005730757790449248
0.005742011466598279
0.005749875672809499
0.005754410296260417
0.005755639725784844
0.005753553696750613
0.005748107589517703
0.005739222222974068
0.005726783165498786
0.005710639587745748
0.005690602677701662
0.005666443622139984
0.005637891149891628
0.005604628631190725
0.00556629072794888
0.005522459578787414
0.005472660502334814
0.0054163572105099
0.005352946512352304
0.005281752467350094
0.005202019910202678
0.005112907182804795
0.005013477821291894
0.004902690739439023
0.00477938612807665
0.004642265569698825
0.004489866032550646
0.004320519399664908
0.004132325595102432
0.003923061079745761
0.003688235584958655
0.003421483325253167
0.003115793233882859
0.002764893893591641
0.002367090982542671
0.001935591538724722
0.001503254374884733
0.001084271823872501
0.0006842960241961334
0.0003438966255163189
0.0001198027864446479
2.459120145449123e-05
3.021002926957184e-06
3.194346489289594e-07
6.284025920470201e-08
4.076687872850454e-08
3.899558520753329e-08
3.886064564219227e-08
3.88489379125383e-08
3.884581456894638e-08
3.884313353499809e-08
3.884035382329202e-08
3.883744139812669e-08
3.883440232520277e-08
3.88312424464737e-08
3.882794750329597e-08
3.882461946263911e-08
3.882122574502593e-08
3.881774947573834e-08
3.881420654580259e-08
3.881062108137294e-08
3.880702285767879e-08
3.880343907298245e-08
3.879995843504774e-08
3.879679243320338e-08
3.879398448125083e-08
3.87916254993329e-08
3.878983747193308e-08
3.878947145666445e-08
3.912682468075936e-08
1.411714496822228e-07
2.23425640160976e-05
0.001804156902321903
0.04733220468939835
8.674793395353715e-08
2.410044164224983e-06
1.589541963142987e-05
5.593027541128033e-05
0.0001425139665167907
0.0002985881907327349
0.0005451081344946577
0.0008909316825413249
0.001321626185789532
0.001799077176364946
0.002277900329306116
0.002724468848502421
0.003124360639582715
0.003477788923837634
0.003784746449129841
0.004047869374217839
0.004271542664574828
0.004460862111088091
0.00462093827885993
0.004756523125035876
0.004871858476755527
0.004970648239495713
0.005056068480247658
0.005130727205652864
0.005196646684249353
0.005255103867380275
0.005306877055493722
0.005352628926643067
0.005392922763334368
0.005428236306238281
0.005458973369810467
0.005485473444083995
0.00550801965673237
0.005526845449810931
0.005542139888359927
0.005554051688586306
0.00556269233713039
0.00556813842894751
0.005570433323651263
0.005569588197748826
0.005565582552710566
0.005558364218312072
0.005547848872602857
0.005533919099331197
0.005516422999228996
0.005495172351725916
0.005469940316890924
0.005440458664587244
0.005406414504283404
0.005367446493648198
0.0053231405010235
0.005273024681396537
0.005216563917677707
0.005153153554788172
0.005082112317696492
0.005002674343699801
0.004913980105404769
0.004815065797329645
0.004704852658934264
0.004582134755376731
0.004445561037207381
0.004293613042629075
0.004124576153570085
0.003936500800448614
0.003727145384576083
0.003492273663924359
0.003225286220996152
0.002918386408226422
0.002564978670658645
0.002165508133940278
0.001738163858155575
0.001313665991442787
0.0008995960205049709
0.0005134546387642925
0.0002154386747762052
5.582081307283609e-05
7.990675653317428e-06
7.890021368826286e-07
9.825739666979228e-08
4.137493127654174e-08
3.703443740170786e-08
3.67229501487832e-08
3.66999409269206e-08
3.669616141037464e-08
3.669346568919202e-08
3.669070765544283e-08
3.668782029485026e-08
3.66848074141358e-08
3.668167525580786e-08
3.667841031792867e-08
3.667510589443472e-08
3.667173509935409e-08
3.66682829682123e-08
3.666476579671042e-08
3.666120747980801e-08
3.665763817796922e-08
3.665408571486959e-08
3.66506331915206e-08
3.664748256758492e-08
3.664468974544566e-08
3.664234490454508e-08
3.664057105745051e-08
3.664102001587697e-08
3.730945594020791e-08
2.28726433948313e-07
3.711148540051691e-05
0.002275409867405191
0.04394057010535413
7.529053727825415e-08
2.091735648994769e-06
1.379638633609294e-05
4.855266999158866e-05
0.0001237911156955415
0.0002597858298353571
0.000475931685782037
0.0007826913072653157
0.001171648021537994
0.001612628147209281
0.002065033053029525
0.002495070983004727
0.002885145969155317
0.003232244095457605
0.003536307592663025
0.003798992534139888
0.004023779987918617
0.00421509950934893
0.004377619540414047
0.004515822125465688
0.004633799177975463
0.004735182180995836
0.004823116876668906
0.004900182243654579
0.004968401731996802
0.005028953804129726
0.005082671976428135
0.005130266469580655
0.005172341612406581
0.005209410831901686
0.005241909290625671
0.00527020439834851
0.005294604449401057
0.00531536565041645
0.005332697779382408
0.005346768688323719
0.005357707826514875
0.005365608930455181
0.0053705319946786
0.005372504614458541
0.005371522773706913
0.005367551126865716
0.005360522800320311
0.005350338741291239
0.005336866463523026
0.005319938360553456
0.005299349790013231
0.005274856710111797
0.005246172853985886
0.005212966415482734
0.005174856215141141
0.005131407315617746
0.005082126055163391
0.005026454332267648
0.004963762933205011
0.00489334399192956
0.004814402597388858
0.004726047189089132
0.004627278365657101
0.004516975517601687
0.004393880136605162
0.004256573027441182
0.00410344463843934
0.003932650672558861
0.003742046409459492
0.003529069677022388
0.003289276324733038
0.003015562060416632
0.002699678905337831
0.002336567359844453
0.001932340568013194
0.001512314289496873
0.001093661333065913
0.0006858512405723318
0.0003329008831192237
0.0001056877409066939
1.839574298011781e-05
1.87723774834747e-06
1.810645883426268e-07
4.550122367292729e-08
3.559645446406339e-08
3.491910766995346e-08
3.487368209488477e-08
3.486864061450503e-08
3.486590171224942e-08
3.486316876781755e-08
3.486031181429019e-08
3.485733103222609e-08
3.485423289446638e-08
3.485100456304504e-08
3.484773229828595e-08
3.484439371688e-08
3.484097543628819e-08
3.483749400139734e-08
3.483397301293713e-08
3.4830442817275e-08
3.48269316060872e-08
3.482351797791027e-08
3.482039450535356e-08
3.481762762470628e-08
3.481530482572674e-08
3.4813541627063e-08
3.48155791138719e-08
3.609332385642368e-08
3.808696152189673e-07
5.916636660695482e-05
0.00298769191493603
0.05281799380508915
6.804549436863679e-08
1.890454141378255e-06
1.246902358972053e-05
4.388620439549737e-05
0.0001119378487382029
0.000235159410328593
0.0004317935596038861
0.000712989678078161
0.001073850059118528
0.001489485190374009
0.001923162138900665
0.002341661848663712
0.002725377481501371
0.003068640281796025
0.003371308193489236
0.003634244605857588
0.003860228096900402
0.004053187289343884
0.004217467937689449
0.004357358979057162
0.004476844950957763
0.004579505182581072
0.004668473944886294
0.004746363629919061
0.004815242544138823
0.004876405729066282
0.004930706969448004
0.004978874358516008
0.005021528158461604
0.005059196182859194
0.005092326749535372
0.005121299488798521
0.005146434244331513
0.005167998328995139
0.005186212384122099
0.005201255058354855
0.005213266687854583
0.005222352127109914
0.005228582849191902
0.005231998410034155
0.005232607352500441
0.005230387602959353
0.005225286392072379
0.005217219730716876
0.005206071658450027
0.005191693086481958
0.005173900004831858
0.005152471265418415
0.005127145919131969
0.005097620077729438
0.005063543262399323
0.005024514189343487
0.004980075926711147
0.004929710489328873
0.004872832960823955
0.004808784776908898
0.004736825831680917
0.004656125364763927
0.004565751298771549
0.004464657406393615
0.004351667346317841
0.004225453146801483
0.004084507342123048
0.003927104244520437
0.003751244561623266
0.003554572854448595
0.00333405107643241
0.003084086339568402
0.002796821715968511
0.002465100154157502
0.002088978951446425
0.001681748032335425
0.001264768199777666
0.0008496640762250301
0.0004619703267166375
0.0001737717727832346
3.699419309705595e-05
4.195191461034851e-06
3.606166521768897e-07
5.623232816482709e-08
3.479425499729931e-08
3.338758382435127e-08
3.329921270940756e-08
3.329183837549575e-08
3.328900984653374e-08
3.328630392683506e-08
3.328348160372629e-08
3.328053746979033e-08
3.327747804843748e-08
3.327429107578681e-08
3.32710569975428e-08
3.326775709192797e-08
3.326437932782536e-08
3.32609404428215e-08
3.325746379558974e-08
3.325397989141663e-08
3.325051724238941e-08
3.324715043834704e-08
3.324406474569736e-08
3.324133491585316e-08
3.323905062174523e-08
3.323730468380978e-08
3.324184884352809e-08
3.544886856678776e-08
6.112694679460154e-07
9.210260610649428e-05
0.004057932192195539
0.06631682416509886
6.070794413084311e-08
1.686602177329974e-06
1.112465580333774e-05
3.915884469585647e-05
9.992000273448066e-05
0.0002101373426439943
0.00038674280993599
0.0006412770014859911
0.0009720414057160567
0.001359482855192849
0.001771357469091538
0.002175698398298436
0.002551126915024903
0.002889156995880521
0.003189526026353706
0.003452286212453371
0.003679460522338801
0.00387439804917564
0.004041039856981407
0.004183411428497067
0.004305337517797191
0.004410310521348481
0.004501427417104388
0.004581291457298806
0.004652002993329834
0.004714835136579474
0.00477068759531659
0.00482032674656999
0.00486440516803688
0.004903478291147065
0.004938018290178154
0.004968425636567977
0.004995038593649579
0.00501814094552336
0.005037968232870012
0.005054712732652946
0.005068527381628557
0.005079528806577751
0.005087799591816658
0.005093389891315388
0.00509631846985683
0.005096573236038166
0.005094111310366521
0.005088858662003943
0.005080709349289017
0.005069524382180005
0.005055130208226231
0.005037316817434917
0.005015835450995462
0.004990395893358454
0.004960663319251671
0.004926254660403123
0.004886734446910623
0.004841610066706596
0.004790326358004015
0.004732259402590032
0.004666709370027011
0.004592892170779011
0.004509929502968575
0.004416836660722418
0.004312507116274411
0.004195691760500818
0.004064971461865971
0.003918718751182125
0.003755042455057505
0.003571706528671941
0.003365985105153583
0.003133711227437495
0.002868299110409455
0.002562191670073732
0.002211926931097558
0.001824487505343732
0.001415843567488533
0.0009988090640025273
0.0005928229236172723
0.0002561613095061683
6.571926592953811e-05
8.637646354201861e-06
7.237753593058502e-07
7.902517667409685e-08
3.488849822534825e-08
3.209270364113564e-08
3.192527393118375e-08
3.191373076685861e-08
3.191072549831549e-08
3.19080441356201e-08
3.190525782015128e-08
3.190235204375245e-08
3.189933318311601e-08
3.189618948125845e-08
3.189299649278493e-08
3.188973853745716e-08
3.188640475230467e-08
3.188301202542812e-08
3.187958352071128e-08
3.18761498683227e-08
3.187273990235026e-08
3.186942527852609e-08
3.186638411491037e-08
3.186369799363907e-08
3.186146441671883e-08
3.185973830715122e-08
3.1867121872855e-08
3.516572557223106e-08
8.919761014254542e-07
0.0001262287105049553
0.004633784130710424
0.06228186575952318
5.578909748288943e-08
1.549946555965564e-06
1.022341545989834e-05
3.598921472152461e-05
9.185751771422414e-05
0.0001933244579151233
0.0003563722093299767
0.000592655928603284
0.0009024557601071858
0.001269809888303907
0.001665791710965184
0.002059625557182352
0.002428941005409964
0.002763352973908487
0.003062094607806131
0.003324795244488203
0.003552924091694178
0.003749376258062116
0.003917769842676857
0.004061919354324321
0.004185520424329038
0.004291991611703785
0.004384394876346268
0.004465335368349209
0.004536939078888679
0.004600556220830558
0.004657113010868179
0.004707398895164029
0.004752086541493247
0.004791749010092983
0.00482687410036089
0.004857876342887775
0.004885106886099727
0.004908861563635568
0.004929387416293341
0.004946887909878981
0.004961527054587679
0.004973432593352566
0.004982698394881691
0.004989386161003212
0.004993526537412214
0.004995119700196276
0.004994135468510305
0.004990512975668051
0.004984159928496348
0.004974951484198243
0.004962728758555159
0.004947296966349934
0.004928423188537051
0.00490583375717797
0.004879211241641067
0.004848191014319025
0.004812357362501947
0.004771239088085812
0.004724304522641843
0.004670955855520048
0.004610522598310901
0.004542253941561559
0.004465309622896868
0.004378748702920253
0.004281515349417535
0.004172420165930661
0.004050114163254793
0.003913053807272073
0.003759450999885105
0.003587199798717242
0.003393779546341355
0.003175445523711086
0.002926554692210973
0.002640151331287061
0.002311426945231379
0.001943561542848219
0.001547227355280911