/*--------------------------------*- C++ -*----------------------------------*\
| =========                 |                                                 |
| \\      /  F ield         | OpenFOAM: The Open Source CFD Toolbox           |
|  \\    /   O peration     | Version:  v1812                                 |
|   \\  /    A nd           | Web:      www.OpenFOAM.com                      |
|    \\/     M anipulation  |                                                 |
\*---------------------------------------------------------------------------*/
FoamFile
{
    version     2.0;
    format      ascii;
    class       volScalarField;
    location    "0.00000156";
    object      nut;
}
// * * * * * * * * * * * * * * * * * * * * * * * * * * * * * * * * * * * * * //

dimensions      [0 2 -1 0 0 0 0];


internalField   nonuniform List<scalar> 
44064
(
6.254112295573128e-13
9.463108314627499e-11
1.775987136023066e-09
1.277192710385323e-08
5.471477744599396e-08
1.656533787164455e-07
3.826332006294934e-07
7.161217082886865e-07
1.086144946485732e-06
1.514104852883457e-06
2.014659848267025e-06
2.590603573216759e-06
3.241991699570183e-06
3.967950064107448e-06
4.767252865816415e-06
5.638620835571557e-06
6.580920950727445e-06
7.5933090803416e-06
8.675327333283025e-06
9.826961174508619e-06
1.104866006003972e-05
1.234132534003676e-05
1.370626944431193e-05
1.514515050492135e-05
1.665988653500987e-05
1.825255314827458e-05
1.992526845235412e-05
2.168006865069509e-05
2.351877811029794e-05
2.544287831842623e-05
2.745338143255602e-05
2.955071537179756e-05
3.173462691798289e-05
3.400410319374831e-05
3.635729346046921e-05
3.879137346206703e-05
4.130222700851921e-05
4.38837337248212e-05
4.652640261127815e-05
4.9215226207403e-05
5.19272441698382e-05
5.463083196913902e-05
5.729150340607042e-05
5.989249424949031e-05
6.247965600568372e-05
6.523223787296624e-05
6.853225864325617e-05
7.293674842392464e-05
7.881011769182299e-05
8.512199411105842e-05
8.710788294393424e-05
8.71428420966636e-05
8.623276283133998e-05
8.419817575039655e-05
8.094563853066465e-05
7.647523927116948e-05
7.087230227199436e-05
6.429858621193772e-05
5.697604585910034e-05
4.915918008316075e-05
4.110419349971406e-05
3.305924422478277e-05
2.528506394022195e-05
1.808429549441676e-05
1.181248967838867e-05
6.840254749518928e-06
3.421060716425392e-06
1.475317471543028e-06
5.650999356434726e-07
2.011167221646947e-07
7.100169482271866e-08
2.834779159590432e-08
1.539708679246315e-08
1.174745819933073e-08
1.079446879618205e-08
1.056445855795448e-08
1.051327312362583e-08
1.050279932345151e-08
1.050083364650226e-08
1.050049394490851e-08
1.050043767737283e-08
1.050042622950103e-08
1.050042109426605e-08
1.050041666495057e-08
1.05004122293092e-08
1.05004077310058e-08
1.050040318877528e-08
1.050039877767549e-08
1.050039381947788e-08
1.050038970140911e-08
1.05003859824932e-08
1.050038159274027e-08
1.050037780854308e-08
1.050037419072403e-08
1.050037072350302e-08
1.050036773425346e-08
1.050036506500131e-08
1.050036206650616e-08
1.050036022337151e-08
1.050035906125194e-08
1.05003578367965e-08
1.050035699028615e-08
1.05003565752786e-08
1.05003571009548e-08
1.050057516001763e-08
1.057017564817579e-08
2.577976992882614e-08
6.452997623104672e-07
3.061333033779628e-13
4.636242880116723e-11
8.729849914442219e-10
6.306995399418539e-09
2.716795598437047e-08
8.470277481433644e-08
2.085921245218331e-07
4.230800352405274e-07
7.337274965776449e-07
1.104899985200016e-06
1.515171238980024e-06
1.992253942869578e-06
2.543561512968559e-06
3.172206636767227e-06
3.879997274145177e-06
4.668234307626014e-06
5.538058086640011e-06
6.490679857423451e-06
7.527569167539738e-06
8.650610430552221e-06
9.86222783060968e-06
1.116547390287248e-05
1.256407513199626e-05
1.406242630550069e-05
1.566552774012391e-05
1.737887880379887e-05
1.92083542778851e-05
2.116006754772211e-05
2.324021746732435e-05
2.54549235982972e-05
2.781004564821273e-05
3.031095371337324e-05
3.296225493095006e-05
3.576747642547915e-05
3.872870747158334e-05
4.184620087680521e-05
4.511793862810897e-05
4.853918307413656e-05
5.210206751877627e-05
5.579533113989876e-05
5.960436182145693e-05
6.351173540062363e-05
6.749833339096065e-05
7.154470980768129e-05
7.563168595408805e-05
7.973843623861302e-05
8.383541057823001e-05
8.786907808270108e-05
9.173917837166544e-05
9.528078369056625e-05
9.828169959416193e-05
0.0001005732009182919
0.0001022051395058467
0.0001033584347232417
0.0001041755258168714
0.0001048485629268785
0.0001056144061812491
0.0001069892918569669
0.0001096704605774334
0.0001125484198191745
0.0001079031023618626
9.616856228502893e-05
8.313409435112798e-05
6.942237872487426e-05
5.550820626272622e-05
4.183893615615188e-05
2.897264251951177e-05
1.765497608953873e-05
8.841539289375215e-06
3.368025665108158e-06
9.781076334275683e-07
2.439493343743419e-07
6.162401342348935e-08
2.092115629028278e-08
1.241956465039966e-08
1.07405324940662e-08
1.042618422649257e-08
1.037041385695618e-08
1.036105310022459e-08
1.035956195816889e-08
1.035932510284869e-08
1.035927424620819e-08
1.035924802229501e-08
1.035922387219056e-08
1.03591989981286e-08
1.035917319563336e-08
1.03591465114864e-08
1.035911938913376e-08
1.035909116659205e-08
1.035906036137661e-08
1.035903124439659e-08
1.035900445261534e-08
1.035897822472912e-08
1.035895193433997e-08
1.035892569835442e-08
1.035889992224584e-08
1.035887461372151e-08
1.035885028892651e-08
1.035883111421921e-08
1.035881476274165e-08
1.035880117751071e-08
1.035879161243645e-08
1.035878672333719e-08
1.03588297816626e-08
1.038445723319219e-08
1.841722017335802e-08
1.702011523823788e-06
4.714003475600594e-05
2.201073475313943e-13
3.334057656026188e-11
6.285873132813142e-10
4.557509067371473e-09
1.974659958615797e-08
6.211293104705031e-08
1.55750214426752e-07
3.250463907486674e-07
5.820050254951166e-07
9.235819840383738e-07
1.289256428430849e-06
1.711929941178226e-06
2.203516264259384e-06
2.768722932874681e-06
3.410477093054759e-06
4.131166127838599e-06
4.933132993681645e-06
5.819024791933154e-06
6.792066280610285e-06
7.856132363971562e-06
9.01527087314724e-06
1.027196618570576e-05
1.162288349474625e-05
1.30501511226054e-05
1.450580885281289e-05
1.607690243480371e-05
1.777309913764882e-05
1.960349237467127e-05
2.157768170823137e-05
2.370574216254853e-05
2.599818529529495e-05
2.846590613042576e-05
3.112011291734446e-05
3.397223499937187e-05
3.703380386062003e-05
4.031630090143913e-05
4.38309638260992e-05
4.75885412344159e-05
5.15989818377513e-05
5.587103991539108e-05
6.041176546015858e-05
6.522581639366811e-05
7.031451804391048e-05
7.55223003630509e-05
8.067076390173214e-05
8.580952026989594e-05
9.09656140202046e-05
9.613955416663708e-05
0.00010130358976289
0.0001064003579275214
0.0001113398303092333
0.0001159925733802184
0.0001201808003278867
0.0001236766487298654
0.0001262316268675004
0.0001276812247356722
0.0001281797329526155
0.0001280455842363861
0.0001273979610010834
0.0001261791535154814
0.0001243677967799058
0.0001222075715609118
0.0001201975283535049
0.0001172720404568822
0.0001049761778381968
8.790036984295897e-05
7.022906704933187e-05
5.257431157769422e-05
3.574254507554583e-05
2.087039031948986e-05
9.475990730317328e-06
2.969692724813297e-06
6.588421085612894e-07
1.275503450041203e-07
2.955049203141478e-08
1.32164287296064e-08
1.067761737951206e-08
1.030615266923142e-08
1.025467456536266e-08
1.024786845679442e-08
1.024698929705182e-08
1.0246858732146e-08
1.024681701843071e-08
1.024678406553142e-08
1.024675071071465e-08
1.024671607267379e-08
1.024668004865901e-08
1.024664315771892e-08
1.024660482961908e-08
1.024656317818329e-08
1.024652347666554e-08
1.024648576588836e-08
1.024644796470174e-08
1.024640956439092e-08
1.024637083218951e-08
1.024633214223822e-08
1.02462939002526e-08
1.024625682459088e-08
1.024622479860869e-08
1.024619635492803e-08
1.024617239121597e-08
1.024615456259331e-08
1.024614429714732e-08
1.024640795130339e-08
1.037759285909528e-08
4.652752563208354e-08
6.079151468753035e-06
9.506880398643768e-05
1.771240511743426e-13
2.68324939919667e-11
5.062465943109537e-10
3.678241243415636e-09
1.599539269782061e-08
5.056410582700958e-08
1.279664296011798e-07
2.71510086679887e-07
4.961588016613792e-07
8.028316215196901e-07
1.152960674367415e-06
1.544338852712367e-06
1.998641567209824e-06
2.522644827147153e-06
3.119935269310645e-06
3.793241391937355e-06
4.545168941898516e-06
5.37862451085023e-06
6.297102057404933e-06
7.304656474616272e-06
8.405040241499223e-06
9.598927118228341e-06
1.087731370061364e-05
1.220821677470621e-05
1.358394642470467e-05
1.507012686113887e-05
1.667496378542915e-05
1.840721380443891e-05
2.027616580721028e-05
2.229161884956397e-05
2.446385405356522e-05
2.680359795398012e-05
2.932197466779115e-05
3.20304441439194e-05
3.494072360474511e-05
3.806468913399569e-05
4.141425423894461e-05
4.500122216243407e-05
4.883710881764867e-05
5.293293334433656e-05
5.729896950181383e-05
6.194443569206096e-05
6.68771021044069e-05
7.210280978903532e-05
7.762484956006526e-05
8.34430211291582e-05
8.955235336652961e-05
9.594147994784917e-05
0.0001025905809526258
0.000109468737649537
0.0001163092181049716
0.0001225782889884024
0.0001283365065693571
0.0001335884266042962
0.000138285440581545
0.0001423368053527012
0.0001456132983479758
0.0001479320891441737
0.0001490394454934112
0.0001486340929370232
0.0001464976057069512
0.0001428178352977378
0.0001380684528981085
0.000132623314701541
0.0001267137126933964
0.0001201202663260364
0.0001087276940861216
8.907690336831812e-05
6.873295155942245e-05
4.860843063966013e-05
2.999685920510117e-05
1.468652209022143e-05
4.860457648931754e-06
1.018043861975527e-06
1.688262335956639e-07
3.233448241829912e-08
1.302653613673595e-08
1.050270640313707e-08
1.019464636534281e-08
1.015930988248462e-08
1.01554527334973e-08
1.015502354255023e-08
1.015494750312297e-08
1.01549046692768e-08
1.015486330940135e-08
1.015482055699011e-08
1.015477608365566e-08
1.015473042857083e-08
1.015468321632774e-08
1.015463236242334e-08
1.015458294185802e-08
1.015453541776093e-08
1.015448758445288e-08
1.015443907562435e-08
1.01543902666853e-08
1.015434148190178e-08
1.015429320040285e-08
1.015424624603663e-08
1.015420458145754e-08
1.015416759169996e-08
1.015413650444845e-08
1.015411312886961e-08
1.015410043336048e-08
1.01553240934038e-08
1.064539470668883e-08
1.293597451543616e-07
1.564926811267088e-05
0.0001769434909009707
1.424681426125089e-13
2.15842624939603e-11
4.074608643346904e-10
2.965535071728496e-09
1.293421878490639e-08
4.104304042251439e-08
1.045005378637193e-07
2.243660912738121e-07
4.17072971114821e-07
6.873064284181129e-07
1.020246657038101e-06
1.378921139812969e-06
1.794780855276032e-06
2.276361170528603e-06
2.827765975883706e-06
3.451984501483719e-06
4.151796049819062e-06
4.930234119427105e-06
5.790887560192521e-06
6.737847301696205e-06
7.77467697743394e-06
8.901097675322435e-06
1.010501972830209e-05
1.134631809805798e-05
1.264327353451373e-05
1.404428847899114e-05
1.555711647747073e-05
1.719007807105182e-05
1.895204698669771e-05
2.085243393318183e-05
2.290116641721322e-05
2.510866201141034e-05
2.748579269415202e-05
3.004383788725181e-05
3.279442349539297e-05
3.574944428090365e-05
3.892096653342562e-05
4.232110803804739e-05
4.596189290671944e-05
4.9855078724361e-05
5.401195083563489e-05
5.8443071355555e-05
6.315796450265425e-05
6.816472277163962e-05
7.346952535372824e-05
7.907605783316129e-05
8.498481108059956e-05
9.119224425470438e-05
9.768978926113425e-05
0.0001044626569115427
0.0001114884081493641
0.0001187350945876823
0.0001261580263667968
0.0001336952762923285
0.0001412617834356196
0.000148643794317175
0.0001544690530824314
0.0001588845908567344
0.0001619470278906507
0.0001636095662978323
0.0001637125627427984
0.0001619859844186259
0.0001580984539349781
0.0001518331077013147
0.0001435409675350306
0.000134124873393441
0.0001246783025231071
0.000114969570558586
9.8594832649517e-05
7.661408440107355e-05
5.440122634561683e-05
3.354741239849461e-05
1.621387796798465e-05
5.060504379053566e-06
9.288361569925711e-07
1.333967749103438e-07
2.480659999372313e-08
1.17111375920797e-08
1.024768526824367e-08
1.00948304856713e-08
1.007981298048752e-08
1.007838635831283e-08
1.007822157746497e-08
1.007816624628122e-08
1.00781181691565e-08
1.007806884214505e-08
1.007801750693083e-08
1.007796466083261e-08
1.007791009802263e-08
1.007785161493733e-08
1.007779409441468e-08
1.007773830371075e-08
1.007768198877341e-08
1.007762490282498e-08
1.007756750668602e-08
1.007751013980559e-08
1.007745336091717e-08
1.00773981068548e-08
1.007734839843612e-08
1.007730424299246e-08
1.007726720591239e-08
1.007723924581359e-08
1.007722764727143e-08
1.008137746052202e-08
1.155605370082502e-08
3.495788559671062e-07
3.509680498144908e-05
0.000320937195703973
1.178463342622473e-13
1.78550750582031e-11
3.372029911120908e-10
2.45727279292833e-09
1.074076413241799e-08
3.417224692043015e-08
8.732372002031544e-08
1.889851005095199e-07
3.560547554719703e-07
5.960616341162271e-07
9.064012869232615e-07
1.239723684241339e-06
1.621769104333099e-06
2.064500550117059e-06
2.572794777653591e-06
3.149940507744873e-06
3.79890552774249e-06
4.522863815001198e-06
5.325511231464679e-06
6.211032000514198e-06
7.183099347255571e-06
8.241550780023116e-06
9.374205375383307e-06
1.053985454225963e-05
1.176774570019597e-05
1.309544965617669e-05
1.453054750997489e-05
1.608121028924214e-05
1.77561885959442e-05
1.956479940162924e-05
2.151691060365325e-05
2.362292073527062e-05
2.589373085058594e-05
2.834070546014774e-05
3.097561994072285e-05
3.3810591458718e-05
3.685799129983582e-05
4.01303365909858e-05
4.364015893280781e-05
4.739984931919865e-05
5.142147779086083e-05
5.571656112051071e-05
6.029574317678955e-05
6.516840323506834e-05
7.03422035795219e-05
7.582255326042118e-05
8.161198490676154e-05
8.770941195672856e-05
9.410923222369914e-05
0.0001008002651723281
0.000107764491750586
0.0001149755493548155
0.0001223968945536284
0.0001299795243451136
0.0001376591441523331
0.0001453527037285344
0.0001529540963353048
0.0001603259904201951
0.0001672881201299055
0.0001726166401769348
0.0001754868919527805
0.0001760673906439412
0.0001743812307004961
0.0001702958307283667
0.0001636070336285158
0.0001542363361936093
0.0001425953905867107
0.0001301054849704267
0.0001177161344962791
0.0001013774337729844
7.796969484495897e-05
5.421940908465747e-05
3.210466957010478e-05
1.427107351488859e-05
3.761874881474579e-06
5.66384591115347e-07
7.342605119060531e-08
1.655828455354799e-08
1.064238468161968e-08
1.006972030611559e-08
1.001781316991687e-08
1.001335478623344e-08
1.001295250480859e-08
1.001287536197504e-08
1.001282099771068e-08
1.00127663813287e-08
1.001270962131264e-08
1.00126510918874e-08
1.001259072294624e-08
1.001252623129316e-08
1.00124623318665e-08
1.001240002209617e-08
1.001233702815009e-08
1.001227318342522e-08
1.001220899429399e-08
1.00121448421277e-08
1.001208135838184e-08
1.001201950746625e-08
1.001196318914059e-08
1.001191309885492e-08
1.001187112588565e-08
1.00118393805747e-08
1.001183844825298e-08
1.002365408624443e-08
1.385255085996993e-08
8.415353801597874e-07
6.122031161191531e-05
0.0004642240384808863
1.025984319260945e-13
1.554549356193865e-11
2.936733853989739e-10
2.142132246807248e-09
9.380947538337455e-09
2.992366279308967e-08
7.671082233445155e-08
1.668595587680058e-07
3.170118625157761e-07
5.362893442358935e-07
8.241198317092373e-07
1.147707601941444e-06
1.509784851069491e-06
1.928726402107478e-06
2.41070132154619e-06
2.959326353845108e-06
3.577635423823462e-06
4.268744775472883e-06
5.036217506070435e-06
5.884106295815471e-06
6.816160658450597e-06
7.832961110123305e-06
8.92454899487936e-06
1.005463889681002e-05
1.123655688277847e-05
1.251459956781845e-05
1.389605320974599e-05
1.53888067118077e-05
1.700134558274507e-05
1.874274266603723e-05
2.062264820878847e-05
2.265127667700228e-05
2.483938790290367e-05
2.719826017919345e-05
2.973965244277689e-05
3.247575286469806e-05
3.541911051276105e-05
3.858254662918063e-05
4.197904323134607e-05
4.562160512029751e-05
4.952308982729817e-05
5.369600163509725e-05
5.815223489908355e-05
6.290274180480904e-05
6.795711437698485e-05
7.332307679461169e-05
7.900586866367694e-05
8.500751107292032e-05
9.132594393259171e-05
9.795400725201005e-05
0.0001048782366823835
0.0001120774264834297
0.0001195209157018536
0.0001271665396872037
0.0001349581727006139
0.0001428227249858451
0.0001506663855115751
0.0001583697545720737
0.0001657818425487832
0.0001727111813404235
0.0001789160966811356
0.000183313200489116
0.0001844722477262429
0.0001825917364413379
0.0001777511817362609
0.0001698718016970945
0.0001588822432738864
0.000145202623444387
0.0001304788999056962
0.0001162825829953543
9.860161658776475e-05
7.39326157124062e-05
4.91514219622522e-05
2.681060721472348e-05
1.008705683817166e-05
2.009617817712652e-06
2.452633210650936e-07
3.302056651993235e-08
1.203930017894501e-08
1.013226748892184e-08
9.970480381718132e-09
9.957580259824027e-09
9.956568172874836e-09
9.956446211142407e-09
9.956385028910739e-09
9.956325737507393e-09
9.956264272277804e-09
9.956200850052614e-09
9.956135508656363e-09
9.956065914886721e-09
9.955996642918654e-09
9.955928874509174e-09
9.955860336589372e-09
9.955790920901841e-09
9.955721157713876e-09
9.955651482454228e-09
9.955582571244155e-09
9.955515326998723e-09
9.9554536648067e-09
9.955398769106338e-09
9.95535288284248e-09
9.955318231543056e-09
9.955360734086984e-09
9.989823023931662e-09
2.063846445494821e-08
2.306777798630611e-06
0.000123041369126574
0.0007910766380981325
8.415751797323719e-14
1.275195876126778e-11
2.409795974594768e-10
1.75960600914371e-09
7.72084824636319e-09
2.46884306561307e-08
6.344519271461225e-08
1.385064138536642e-07
2.651554883559157e-07
4.539011678469916e-07
7.070392144649297e-07
1.014141970110351e-06
1.344994992368652e-06
1.727175146719625e-06
2.168498757580728e-06
2.673050048950647e-06
3.24409082791538e-06
3.884881778587343e-06
4.599078280003333e-06
5.390791850323794e-06
6.263744854677049e-06
7.218114990111215e-06
8.242336661258346e-06
9.295268777484745e-06
1.041165986161865e-05
1.161955862214402e-05
1.29260242383535e-05
1.433872760103285e-05
1.58659494352066e-05
1.751657437623517e-05
1.930008577035186e-05
2.122655920237783e-05
2.330665223690809e-05
2.555158808374165e-05
2.797313123038481e-05
3.058355249630083e-05
3.339558067683419e-05
3.642233798250269e-05
3.967725519376521e-05
4.317396389906413e-05
4.692616382592355e-05
5.09474544474495e-05
5.525110793513292e-05
5.984977022589752e-05
6.475508736967402e-05
6.997724786571977e-05
7.552442635255491e-05
8.140211461060348e-05
8.761232610426558e-05
9.415264040996215e-05
0.0001010150500524936
0.0001081845838782764
0.0001156376597768751
0.0001233400914212168
0.0001312446517775271
0.000139288055368792
0.0001473872913916609
0.0001554352216324282
0.0001632950904277592
0.0001707928992136679
0.0001777088496299024
0.0001837673945604685
0.0001886242445056918
0.0001916285915585418
0.0001898965575568732
0.0001839711350684998
0.0001742665269741585
0.0001612065425697394
0.0001456787139955513
0.0001293931850542472
0.0001134403160715986
9.147912384436076e-05
6.560118855625489e-05
4.040613743096601e-05
1.91416689279907e-05
5.398000902388136e-06
7.548012824580848e-07
8.129968262044345e-08
1.602011491866194e-08
1.039462112794034e-08
9.943554060618255e-09
9.909665784329667e-09
9.907227922471685e-09
9.907011856907587e-09
9.906941336778645e-09
9.906877750787812e-09
9.90681215395696e-09
9.906744451155916e-09
9.906674761348541e-09
9.906600716932682e-09
9.90652677606613e-09
9.906454273046345e-09
9.906380945788724e-09
9.906306734608863e-09
9.906232185738115e-09
9.906157796444214e-09
9.906084285301598e-09
9.906012536373258e-09
9.905946400239026e-09
9.905887577657393e-09
9.905838399279072e-09
9.905801667235923e-09
9.905954778618384e-09
9.992144131895385e-09
3.604497301888465e-08
5.525653368979282e-06
0.0001998436899228281
0.001100926750186548
7.594997016750606e-14
1.150861347887113e-11
2.17525403119037e-10
1.589373766530128e-09
6.983358629372167e-09
2.237619627319341e-08
5.765168537989536e-08
1.262778159599065e-07
2.429601756466111e-07
4.187891389371317e-07
6.573646792603997e-07
9.558103705352407e-07
1.27214633610877e-06
1.637227879348777e-06
2.059374093307052e-06
2.542749107612333e-06
3.090598444634533e-06
3.706096478897394e-06
4.39274564438931e-06
5.154497104354979e-06
5.995154401707034e-06
6.915909590803227e-06
7.908644110720923e-06
8.940842765787474e-06
1.00217903168113e-05
1.119129603736738e-05
1.245617783453227e-05
1.382386493992756e-05
1.530240136534435e-05
1.690044513994261e-05
1.862726694138959e-05
2.049274923247697e-05
2.250738336221664e-05
2.468226179765236e-05
2.702906301382494e-05
2.956002648410259e-05
3.228791551416178e-05
3.522596651577475e-05
3.838782267962716e-05
4.178744899623309e-05
4.543902492927182e-05
4.935680400884912e-05
5.35549196418305e-05
5.804712400390366e-05
6.28464564852242e-05
6.79648290682314e-05
7.341251429268992e-05
7.919752169819577e-05
8.532483297898476e-05
9.179547534867485e-05
9.860541111388968e-05
0.000105744199076234
0.0001131933787597306
0.0001209245087058866
0.0001288967772816382
0.0001370542397638756
0.0001453224944977316
0.0001536044814119167
0.0001617752775004573
0.0001696756029750313
0.0001771026318251156
0.0001838013290003118
0.0001894520892133198
0.0001936560860608337
0.0001959083461894638
0.0001935720903773051
0.0001862483620961371
0.000174506079842296
0.000159170143850257
0.0001417300837798005
0.0001243009956044193
0.0001066926692985083
8.068630925480375e-05
5.396642809115841e-05
2.946479184785299e-05
1.099468403988557e-05
2.022792882109565e-06
2.108378695951126e-07
2.639175561625532e-08
1.111794703596259e-08
9.952364173903867e-09
9.869211108029915e-09
9.863599931613807e-09
9.863189948101497e-09
9.863105393961458e-09
9.863037741165504e-09
9.862968500385632e-09
9.862897046748154e-09
9.862823553293073e-09
9.8627456251769e-09
9.862667623133936e-09
9.862591009643979e-09
9.862513535388187e-09
9.862435180902035e-09
9.862356502015854e-09
9.862278057245385e-09
9.862200596433378e-09
9.862124934148445e-09
9.862054955158222e-09
9.861992753244468e-09
9.861940745198046e-09
9.86190212854997e-09
9.862273080595643e-09
1.004223498168722e-08
6.154219672818805e-08
9.431203175420368e-06
0.0002153622805858676
0.0009514507555826062
6.591880146674161e-14
9.988897533268826e-12
1.888418872642552e-10
1.380791523736926e-09
6.075978473386508e-09
1.95116916052289e-08
5.040174911100524e-08
1.107384461843347e-07
2.140576322431327e-07
3.715777729087041e-07
5.882425684954006e-07
8.625135715595967e-07
1.165968628710451e-06
1.507593756390743e-06
1.901681522662501e-06
2.353654828479939e-06
2.8671525020118e-06
3.445553330174282e-06
4.09250938542185e-06
4.812083048139872e-06
5.608095516307111e-06
6.481396754819686e-06
7.422345409666058e-06
8.393785669061896e-06
9.427891742200877e-06
1.05478154419375e-05
1.176021311395223e-05
1.307237358446586e-05
1.449222136894592e-05
1.602831825695519e-05
1.768986196585559e-05
1.948668640993498e-05
2.142926133579529e-05
2.352868970750048e-05
2.579669980695264e-05
2.824562998498624e-05
3.088840353492311e-05
3.373849258836983e-05
3.680986814553682e-05
4.011693325202318e-05
4.367443777388704e-05
4.749736532633094e-05
5.160076785746767e-05
5.599953165215563e-05
6.070807506367145e-05
6.573996685889769e-05
7.110744703858473e-05
7.682083040404253e-05
8.28877846890037e-05
8.931245619434136e-05
9.609440749597097e-05
0.0001032273314637331
0.0001106975013802101
0.0001184819380487671
0.0001265462576908009
0.000134841828386733
0.0001433021532261001
0.0001518385397510774
0.0001603347783170065
0.000168640726851337
0.0001765644519870726
0.000183861163030045
0.0001902239576565486
0.0001952689749939024
0.0001985239284784553
0.0001994008586395567
0.0001955635279562668
0.0001861051746352557
0.0001719242396812114
0.0001545370527688415
0.0001361277757350974
0.0001179428055190457
9.398355598908897e-05
6.672692724490584e-05
4.011517220147457e-05
1.805126253168685e-05
4.499719426794504e-06
5.206557951943166e-07
5.094220890475301e-08
1.281565453406909e-08
1.002713619732721e-08
9.836932728555356e-09
9.824731049577774e-09
9.823939097836737e-09
9.823830970362946e-09
9.82375910713994e-09
9.823686552264398e-09
9.823611720656137e-09
9.823534810239566e-09
9.823453403723132e-09
9.823371781032863e-09
9.82329151618159e-09
9.823210373093789e-09
9.823128368155289e-09
9.82304606449888e-09
9.822964079618647e-09
9.822883195943806e-09
9.822804195922921e-09
9.822730906228693e-09
9.822665899333981e-09
9.822611527878465e-09
9.822570947228746e-09
9.823393051184228e-09
1.018397053522313e-08
1.073967953500147e-07
1.522742689172798e-05
0.0002664060599134559
0.001231179430483738
5.95756198818878e-14
9.027871617391291e-12
1.706982372928855e-10
1.248740067884018e-09
5.50061678460643e-09
1.769171537820254e-08
4.578384852710484e-08
1.007895634737006e-07
1.953521576950023e-07
3.405677991810294e-07
5.422611163822684e-07
8.001444906816692e-07
1.096636598414496e-06
1.424012255490545e-06
1.801356519929107e-06
2.235018707609508e-06
2.728863994477077e-06
3.286303120571727e-06
3.910920664090679e-06
4.60667045755828e-06
5.377381294860312e-06
6.22446773326176e-06
7.140386966789479e-06
8.093371951361885e-06
9.100051016133603e-06
1.01904275288091e-05
1.137105113403436e-05
1.264908788483145e-05
1.403233559582529e-05
1.552923888855369e-05
1.714889281398366e-05
1.890104988664891e-05
2.079612757384734e-05
2.284521339152036e-05
2.506006564719964e-05
2.74531076136276e-05
3.003741309942466e-05
3.282668170904187e-05
3.583520117504088e-05
3.907779362567838e-05
4.256974337212916e-05
4.632669760512042e-05
5.036452026017007e-05
5.469908579210714e-05
5.934600746138796e-05
6.432028515114316e-05
6.963585953724625e-05
7.530506035109422e-05
8.133792188438209e-05
8.77413392732038e-05
9.451803293058093e-05
0.0001016652800003078
0.0001091733610062057
0.0001170236413849188
0.0001251861979518419
0.0001336170412470737
0.0001422547633069038
0.0001510163534249707
0.0001597920525642677
0.0001684389196491819
0.0001767728831393969
0.0001845577555471222
0.000191495383097279
0.0001972134532523752
0.0002012524726591339
0.0002030515020969656
0.0002017012881046405
0.0001945749113380735
0.0001821337859844506
0.0001655645380301834
0.0001468647285857933
0.0001276932968707732
0.0001055932912702405
7.834484275415184e-05
5.057897727181359e-05
2.58048060159423e-05
8.313510301867528e-06
1.186642547043886e-06
1.056966934202132e-07
1.652648305904195e-08
1.022818073084176e-08
9.81534408448066e-09
9.789980430380325e-09
9.788459608922624e-09
9.78831128274221e-09
9.788234720654096e-09
9.788159115161618e-09
9.788081220704012e-09
9.78800122105415e-09
9.787916678430855e-09
9.78783180475681e-09
9.787748273217722e-09
9.787663860690776e-09
9.787578616547483e-09
9.787493111764641e-09
9.787408021501066e-09
9.787324159932178e-09
9.787242250391389e-09
9.787166134469516e-09
9.787098802404907e-09
9.787042931825839e-09
9.787000165889618e-09
9.788570746313336e-09
1.043851148061126e-08
1.798073447237725e-07
2.364550438331169e-05
0.0003451670249281878
0.001548752112675706
5.315143769615424e-14
8.054534918079425e-12
1.52316780882069e-10
1.114825991424969e-09
4.915937061255956e-09
1.583662258071909e-08
4.106050366822316e-08
9.057277715477082e-08
1.760036669170898e-07
3.081001765490271e-07
4.934242053559446e-07
7.329559593730992e-07
1.019539153077825e-06
1.329349987372883e-06
1.686060237942555e-06
2.09683345835694e-06
2.565809596562991e-06
3.096581971891025e-06
3.692878903520402e-06
4.358756802076963e-06
5.098085159617382e-06
5.912168702016193e-06
6.792909596306026e-06
7.706701422158944e-06
8.679529142647895e-06
9.734035579966974e-06
1.087682811308219e-05
1.211511762232006e-05
1.345674656835488e-05
1.491021980501322e-05
1.648471353923304e-05
1.819008730825918e-05
2.003689646965725e-05
2.203640291613472e-05
2.420058178839268e-05
2.654212169996957e-05
2.907441658666109e-05
3.181154693897151e-05
3.476824706752938e-05
3.795985660286348e-05
4.140225404117783e-05
4.511176571547562e-05
4.910503446197244e-05
5.339882834516826e-05
5.800978145186135e-05
6.295405981203677e-05
6.824694027538812e-05
7.390228713776285e-05
7.993190270779633e-05
8.634472382333383e-05
9.314582884121873e-05
0.0001003352138288253
0.0001079062863150973
0.0001158440118192906
0.0001241226185735978
0.0001327027402731596
0.0001415279269660652
0.0001505203667628332
0.0001595755450693416
0.0001685556097362645
0.0001772812600435139
0.0001855211541033653
0.0001929817321302482
0.0001992954293572448
0.0002040084069203736
0.0002065718347313479
0.0002063099891598495
0.0002015804144810602
0.0001911476810415497
0.0001757728076834961
0.0001572281729566626
0.0001375282781803494
0.0001157265027269596
8.866096144854789e-05
6.044696602036412e-05
3.376351991380713e-05
1.31270399717635e-05
2.426889534675068e-06
2.197049948239163e-07
2.414227336909974e-08
1.066322841151669e-08
9.80953507353189e-09
9.758996027790456e-09
9.756131967498165e-09
9.755914278154525e-09
9.755831959909119e-09
9.755753504678006e-09
9.755672811924905e-09
9.755589995373785e-09
9.755502597269651e-09
9.755414770977227e-09
9.755328279126881e-09
9.755240910773474e-09
9.75515274529658e-09
9.755064362031137e-09
9.754976489764539e-09
9.754889976214961e-09
9.754805534031444e-09
9.754726927393085e-09
9.75465753982585e-09
9.75460095793541e-09
9.754555216285726e-09
9.757026183361311e-09
1.076701820360654e-08
2.726582429302706e-07
3.19968704227365e-05
0.000360805762666743
0.001361489537271005
4.884487808117705e-14
7.402024044231519e-12
1.399915948229662e-10
1.024970378183667e-09
4.523022017667653e-09
1.4586936190506e-08
3.786838597684543e-08
8.364107110564673e-08
1.628154138531864e-07
2.858588042853642e-07
4.598603202985496e-07
6.867603818816535e-07
9.644436275192498e-07
1.263794653220785e-06
1.606868287065254e-06
2.00232568694021e-06
2.454675487349297e-06
2.967639257581435e-06
3.544985693286769e-06
4.190777806916896e-06
4.908959475397374e-06
5.701271001181471e-06
6.561068951801586e-06
7.458446006339975e-06
8.410850508174822e-06
9.443622412860986e-06
1.056330308293077e-05
1.177704737079424e-05
1.309265655629606e-05
1.451862025359926e-05
1.606412847473153e-05
1.773908810820052e-05
1.955414113874792e-05
2.152068214526487e-05
2.365087269523564e-05