/*--------------------------------*- C++ -*----------------------------------*\
| =========                 |                                                 |
| \\      /  F ield         | OpenFOAM: The Open Source CFD Toolbox           |
|  \\    /   O peration     | Version:  v1812                                 |
|   \\  /    A nd           | Web:      www.OpenFOAM.com                      |
|    \\/     M anipulation  |                                                 |
\*---------------------------------------------------------------------------*/
FoamFile
{
    version     2.0;
    format      ascii;
    class       volScalarField;
    location    "0.00000156";
    object      omega;
}
// * * * * * * * * * * * * * * * * * * * * * * * * * * * * * * * * * * * * * //

dimensions      [0 0 -1 0 0 0 0];


internalField   nonuniform List<scalar> 
44064
(
1142207.82796486
209709.5070971034
73623.67553588965
35726.99189817565
20577.29169928384
13136.71960859541
9023.128620786752
6569.675383590213
5003.533665435963
3938.647007018553
3181.520663832796
2624.168344536336
2201.720590574715
1873.374871759028
1612.536444121528
1401.343627777699
1227.482272958474
1082.263223520789
959.4255987468719
854.3715827540098
763.6652593884507
684.6972578537561
615.4559662352888
554.368674645905
500.1894824740226
451.9189736107445
408.7459450347279
370.0045564234374
335.1424591082447
303.6968388167978
275.2762352243482
249.5466321394965
226.2207195497903
205.0495386992167
185.8159254914806
168.3293049251888
152.421482009404
137.9431388898042
124.7608028512128
112.7541218282399
101.8134094931438
91.83764064062562
82.73343410498927
74.41575784055559
66.81135392363986
59.865919740812
53.55341483613888
47.88108293144425
42.87430450290631
38.5233637459306
34.69684324678799
31.26926192555036
28.21771911602046
25.53090275193334
23.17675117418034
21.11270629585097
19.29435159329029
17.6782000141806
16.2222386591959
14.88722433256131
13.6418828850847
12.47068638172802
11.37824024092305
10.38799734045332
9.537298051144127
8.867242968903149
8.410193289229264
8.159896270542673
8.051344103358336
8.008838331814824
7.994733398985869
7.990520296158323
7.989272864599703
7.988874838938563
7.988767997133294
7.988760847903102
7.988753462985724
7.988746515193564
7.988742291000339
7.988737547689456
7.988732463368038
7.988727132910165
7.988721590266597
7.988715868267604
7.988710007449269
7.988704049889202
7.988698032639237
7.988692190407083
7.988685616715211
7.988680166721191
7.988675242068786
7.988669421412189
7.988664409719517
7.988659616368583
7.988655022195427
7.988651061890741
7.988647524665682
7.988643549388835
7.988641107945921
7.988639568187801
7.988637944858916
7.988636822836428
7.98863627262585
7.988636467098975
7.988639066221591
7.989121686729754
8.115428728550389
32.68930845462529
1142193.773074818
209526.1077981427
73349.49130587683
35594.32072319653
20777.06889811013
13487.76732807549
9340.815426020659
6795.625751364264
5156.202702399355
4050.784887359689
3267.631212005303
2690.930527716985
2254.151162318161
1915.445977900009
1647.30601139517
1431.093941423622
1253.874621892369
1106.480778665501
982.2927790407365
876.4486126650319
785.3208750804587
706.1635354459726
636.8690567395023
575.7987050245911
521.6623032880404
473.431962696349
430.2795906706453
391.53170100107
356.6326049535609
325.1207010710344
296.5927013139396
270.7091405689372
247.1802974378121
225.7582212916913
206.2282175756875
188.402775427972
172.1169514126558
157.224788705348
143.5965002709752
131.116236629549
119.6803246882663
109.1959063294685
99.57992177784479
90.75836738421775
82.66570797281689
75.24430017758912
68.44352208149003
62.21826373266535
56.52649409807224
51.32620273440868
46.57334079293194
42.22417061757142
38.24195531621093
34.60139476520649
31.28815717256466
28.29883874131498
25.64725149328883
23.34197178360287
21.34627587470932
19.60152236902229
18.05836190347788
16.66854694834917
15.36860912183061
14.08377816766904
12.75941941219504
11.39577788196472
10.04725735603211
8.804716238563215
7.788493710996296
7.129389054854812
6.847542529296781
6.761462785439744
6.741856431646204
6.737897742290674
6.737141522350646
6.736921610325749
6.73681772363908
6.736727276960312
6.736629749445391
6.7365221190781
6.736404281936181
6.736276323835326
6.736138330323128
6.735990598246675
6.735833596265062
6.735667904733312
6.735494155627203
6.735313517129375
6.735125975185348
6.734931237927245
6.734739823556227
6.734547883842614
6.734353675672014
6.734157472445317
6.733960441838017
6.733764055750916
6.73356804728733
6.733384850704463
6.733241565960764
6.733118196162777
6.733018316825012
6.732948022054049
6.732914128452032
6.732926080973147
6.733004312804977
6.734572577988044
6.997615543042661
22.56793607336342
1142186.236129374
209486.8311097541
73257.87094115012
35470.63386569
20684.62295674202
13474.21111388878
9375.204077007422
6832.889687320705
5177.373683076102
4058.032171725348
3267.922225801515
2686.056692191627
2245.082711178067
1903.167720408763
1632.766835509647
1415.126837834502
1237.168672918771
1089.586869538046
965.6449798456655
860.3900385058371
770.1266522879612
692.0545505498931
624.0094636218189
564.2685096164018
511.3899010360638
464.2645672466218
422.1178606124631
384.3067812116122
350.2924589104009
319.6197739640194
291.9015051138148
266.8059480825116
244.0471588230162
223.3772104123352
204.5800010161824
187.4662695531679
171.8695593782462
157.6429325772507
144.6562842323178
132.7941424612257
121.9538802964716
112.0443079775271
102.9845816029919
94.69466594781356
87.08188630012728
80.06711686808686
73.591008976794
67.60643553757313
62.07395710688977
56.95907469910763
52.23059534538723
47.85963664137196
43.8190695400938
40.0830289191984
36.62685710764178
33.42825462025471
30.47106174758094
27.74871842644942
25.26298357588012
23.02036915738952
21.04151589755214
19.33619590553928
17.85597592582273
16.5294975669389
15.30018223980812
14.075361681055
12.75804288206328
11.30559165882799
9.753621126833464
8.233214723374783
6.974592953369108
6.220962380019417
5.955568178307987
5.898174672124748
5.888592606607613
5.887080920234757
5.886771072128642
5.886626632527019
5.886493673128704
5.886352000187317
5.886199658443169
5.886036092594461
5.885861186730438
5.88567502578797
5.88547780906043
5.885269866072155
5.88505151325269
5.884823722212537
5.884586496539418
5.884339057295898
5.884098720935159
5.883854175592268
5.883603350537841
5.883346972847542
5.883086722155928
5.882824650146182
5.882561733823335
5.882309914079118
5.88209564014356
5.881906219367161
5.881747776494098
5.881629119648236
5.881561036622404
5.881556571693265
5.88164509601201
5.885233945144652
6.471341732251133
27.26533059904094
1142182.167342166
209465.4792225875
73206.16746207826
35394.88190082684
20616.02931716863
13449.0192196495
9388.490574252992
6853.512845740999
5189.792016254653
4059.845422026471
3263.597650207532
2678.814826629182
2235.975488178882
1892.915242119147
1621.937177526301
1404.15298806334
1226.364361868963
1079.170542120506
955.7652301572572
851.1473890176841
761.5884680250042
684.260247276581
616.9622348629006
557.9083286656735
505.6498245777583
459.1166802007968
417.5311212837753
380.2478246909031
346.7270581688039
316.5138874951385
289.2219987785912
264.5210375753877
242.1266363056974
221.7925057649485
203.3041196407052
186.4736353726697
171.1357801105061
157.1444944201113
144.3701742925622
132.6973886072621
122.0229852996079
112.2545385169599
103.3090678357703
95.11194255940227
87.59598493294486
80.7008752394117
74.37267115852877
68.56334991896605
63.23040242054946
58.3365278713744
53.84493337263551
49.7042390979831
45.87138244705459
42.31339460337766
39.00458133930264
35.92413670780611
33.05500499203701
30.38345969952276
27.89855604243825
25.5915232532233
23.45781042103188
21.49912945187275
19.72655147094248
18.17021938590298
16.82425630074292
15.61471576667561
14.46138333011718
13.25575499672986
11.87896029610385
10.29099748183266
8.563413788624041
6.939919445875266
5.819898747807905
5.381517712496331
5.289778120390382
5.276309608204046
5.274491869111996
5.274156489004342
5.27398473396782
5.27382014027427
5.273645684170513
5.273459328136126
5.27326074495221
5.273049965779992
5.272827152517591
5.272592637473195
5.272346681165614
5.272090224936848
5.271823520963451
5.271545878300397
5.271271567881821
5.270992072702009
5.270705629541104
5.270413329273525
5.270117103580988
5.269819223406667
5.269521141781105
5.26923365346632
5.268981398535183
5.268758064283831
5.268570560660162
5.26842888616055
5.268345823333312
5.268338070503049
5.268455580421293
5.276083175472937
6.33328118660012
26.17812383011336
1142178.905184352
209448.3871538675
73164.66155443861
35333.84358925275
20560.97555866827
13433.02568622986
9420.876814899759
6909.49258291555
5245.484047994984
4105.207184559297
3299.216428571529
2706.622721480698
2257.019059935754
1908.373125644012
1632.970416903348
1411.777624046016
1231.416391474899
1082.314689911214
957.5201525402581
851.9140902180063
761.6753325239301
683.9005823264115
616.3204691297187
557.0699944255957
504.6936471987473
458.122359175272
416.554652347112
379.3273419559853
345.8873809366621
315.7700330482542
288.5818696341185
263.9874627035743
241.6989105749606
221.4675410008682
203.0772974477466
186.3394313899406
171.0882148357871
157.1774530615982
144.4776267489024
132.8735340267889
122.2623385908995
112.5519590591045
103.6597426661852
95.51135884942764
88.03985243581546
81.18482056316373
74.89169806335462
69.11112707514383
63.79839823287455
58.91295901708006
54.41797281500639
50.27999946302025
46.46911092917453
42.9590879994287
39.72765136917318
36.75584945080536
34.01288897753491
31.46707515734175
29.09651480035225
26.88577102291382
24.82383529735568
22.9032232047092
21.12053973191937
19.47764667871308
17.98140367369279
16.65706587279736
15.49122463895925
14.39449998778398
13.25438995119855
11.94018165289942
10.35066391469299
8.510398271648841
6.676687251364999
5.384536961773757
4.910044818839881
4.824347935480408
4.813658400515482
4.812380575165959
4.812109408108152
4.811927202118595
4.811742201109445
4.811545134117523
4.811335304861408
4.811112672854118
4.810877264418719
4.810629367526879
4.81036921420147
4.810097659687148
4.809815083415641
4.809520846749503
4.809227084987454
4.808927114184209
4.808619502023666
4.808305615551897
4.8079875877089
4.807667943329982
4.8073485802083
4.807040051947989
4.806765932241934
4.806523077018773
4.806318989867877
4.806164519225924
4.806073461148745
4.806065079456995
4.806231374086492
4.821660997088634
6.563766504442152
25.63774722345164
1142176.53511487
209435.9496741001
73134.28292518771
35288.67359001818
20519.7636077905
13422.81370533518
9455.210560875956
6970.388594305417
5308.099287259866
4157.853099934616
3341.950130561794
2745.308821085428
2292.310874592901
1939.92679757097
1660.668621101439
1435.769451706459
1251.999662326393
1099.844108743001
972.3561703361808
864.3997251526521
772.128375484219
692.6124005279178
623.5549353238381
563.0564303954562
509.6307975033153
462.1877863493079
419.8925056600065
382.0554763371853
348.1028751267979
317.5534837065245
290.0007126359209
265.0985393423973
242.5504609056542
222.1007680550115
203.5276047209612
186.6374104975343
171.260435028268
157.2470887617035
144.4649564032638
132.7963364584006
122.1362032880594
112.3905599507099
103.4751232875353
95.31418683085381
87.83960454751256
80.98991221929197
74.70955793628795
68.94824724413047
63.66038926807408
58.80461106427392
54.34333110739923
50.24238823444989
46.47073081605088
43.00016063089212
39.80511300918239
36.86244004518315
34.15120883457271
31.653261202982
29.35408635727409
27.23718054720596
25.27845447895974
23.45813870572911
21.76287702130828
20.18430199603705
18.71900838181909
17.36745693961635
16.13634862820617
15.03617850740317
14.00596920862118
12.9237609376527
11.64197812946364
10.02492606147635
8.076561866792364
6.122977649367275
4.875991164279884
4.509578775743592
4.457418051665681
4.45186737834361
4.451205125973045
4.450986004859145
4.450793335158227
4.450591650872167
4.450377111805898
4.450149428263651
4.449908801893446
4.449655521129253
4.449389678985858
4.449112026070278
4.448823013475475
4.448522044049334
4.448219701538116
4.447910556927036
4.447593424274278
4.447269803342097
4.446941893383887
4.446612363583979
4.446283400563125
4.445964872481771
4.445678803820003
4.445425228021434
4.445211851999489
4.445050094780756
4.444953836142009
4.444943015182807
4.445192231634513
4.476132860658597
7.224525793222242
30.52328824274576
1142174.900612852
209427.279539372
73112.24472480113
35252.83079970784
20479.06267056161
13393.73891325799
9452.123750103699
6991.351606570107
5338.818994259141
4187.747119030526
3366.668518821434
2764.752888711469
2307.629253855266
1951.670734335841
1669.423949485283
1442.118100551754
1256.46372912198
1102.862338334182
974.2816493990482
865.5082079337985
772.6310601443301
692.670206651586
623.292878452315
562.5771423986731
509.0271764594505
461.513070968613
419.1856436391755
381.344148266659
347.4060347869959
316.8834615251507
289.3649049529884
264.5007392989208
241.9918882184364
221.5808505731221
203.0445664639165
186.188710254981
170.843097465332
156.8579658318265
144.100937992196
132.4545228410757
121.8140516598285
112.0859611747903
103.1863735729272
95.03993169998198
87.57881621404086
80.74189071189284
74.47396016495294
68.72511590343467
63.45015416781997
58.60806824940644
54.16160728669339
50.07689892487932
46.32312413954818
42.87223713411867
39.698725727931
36.77942028571842
34.09336017700761
31.62171994055815
29.3477395041788
27.25691134415425
25.33712036504229
23.57938445459225
21.96097044552152
20.46443208019452
19.07749187443819
17.79192696015552
16.60179017724444
15.49943569893526
14.48751073685367
13.51313131711589
12.44999606731638
11.133777006857
9.410490832709572
7.310241151531344
5.355517617089604
4.383564880481084
4.184972148628876
4.163184424763451
4.161108768341617
4.16077692761001
4.160575109246734
4.160370867645802
4.160154419178377
4.159924965436097
4.159682479798111
4.159427172648948
4.159159221457499
4.158879329464067
4.158588000913023
4.158284687294676
4.157978812673037
4.157665865028944
4.157344862973479
4.157017381306638
4.156685633290699
4.156352366155866
4.156019921378209
4.155697443235751
4.155405784357067
4.155147036949844
4.154929446735371
4.154763733198958
4.154664862932527
4.154651272100971
4.155081445747979
4.218385708140636
7.865528535848127
23.37026769747991
1142173.078326902
209417.6567949039
73088.07117705861
35214.58345192893
20438.78707105419
13373.39515761431
9473.014681232436
7056.862845844465
5429.683829793106
4282.433036349847
3453.205579285834
2840.468325795458
2373.266165588067
2007.704190586929
1716.796005866858
1481.970201351681
1289.91816287672
1130.92609894604
997.821401007713
885.2588119503978
789.2164063073318
706.6239501450946
635.0701164717246
572.5471538072965
517.4821671338435
468.7132151447965
425.3378793413063
386.6147980601063
351.9301203551385
320.7716800733829
292.7088764493516
267.37696949691
244.4647778373124
223.704991819799
204.8665107688917
187.7483483088759
172.17474756467
157.9912387564148
145.0614387935099
133.2644301598476
122.4925951936063
112.6498327584526
103.6501054824505
95.41623244653167
87.87885105019059
80.97551411300705
74.64990364274252
68.85114297093044
63.53319190868822
58.65432509105811
54.17668455829981
50.06588754460712
46.29068525496719
42.82267352399201
39.63605251527222
36.70743459851878
34.01567240942969
31.54169748625483
29.26840063321452
27.18067080699408
25.26529231324873
23.51080511316302
21.90771184230104
20.45010735219257
19.12099497090141
17.9038048595402
16.78482332149991
15.750216248458
14.78451211728837
13.8645640340156
12.92960277116718
11.85266953056133
10.4311528381735
8.510999748586887
6.25874300173802
4.555612697954869
4.002381815143438
3.929100811134471
3.922584795662045
3.921920599772966
3.921694895990608
3.921489027777639
3.921272248559125
3.921042503028947
3.920799792242272
3.920544373347431
3.920276350714323
3.91999637385131
3.919704984963877
3.919401681035755
3.919094990631653
3.918781097153136
3.918459191925186
3.918130902428101
3.917798447854689
3.917464637158158
3.917131931792468
3.916808937257109
3.916515481273675
3.916255275170918
3.916036577192303
3.915870595333336
3.915773120667784
3.915758636413653
3.916536422659003
4.043424826741313
9.02784022361976
28.67153518305561
1142172.060926639
209412.2083993548
73073.85437980952
35190.1337426662
20407.65397861334
13344.01017434953
9455.19859311435
7055.330152559794
5439.682377048721
4295.902183449467
3465.200369251629
2850.4282151456
2383.058333740148
2017.129409028575
1725.423077439634
1489.550779186462
1296.384194077088
1136.320985549215
1002.242170008181
888.8201284113808
792.033136162035
708.8082727110817
636.7412871615521
573.8527496855012
518.5347647447891
469.5706243346304
426.0437773119668
387.2020560026619
352.4232984469893
321.1889545683715
293.0635711071862
267.6787473391125
244.7205687169632
223.9197321185781
205.0437296152371
187.8906195017545
172.2840340897988
158.0691455677733
145.1093845603167
133.2837570020341
122.4846387301154
112.6159671383001
103.5917691540996
95.33494026265697
87.7761978597148
80.85317696023617
74.50964416070403
68.69480948304958
63.36273175729493
58.47179801902601
53.98426354995112
49.86585294948484
46.08541572692712
42.61463296346076
39.42776867564444
36.5014198197639
33.81431155850049
31.34717003742373
29.08264310608873
27.0052657838559
25.10160911441035
23.36007615386606
21.77107769408594
20.32727646479455
19.02494435316985
17.85030794207285
16.78916737300833
15.82562368551197
14.9385160558486
14.09338188510365
13.24512190367111
12.31261716554648
11.14930189289099
9.514334317197738
7.311732453046452
5.077072962745828
3.950318257489604
3.742222108380279
3.723033741994533
3.721454252543983
3.721169840108545
3.720961052186248
3.720745081042235
3.720516547229028
3.720275128729442
3.720021013638252
3.719754381595744
3.719475853824406
3.719185997559523
3.718884346393228
3.718578714790039
3.718265825227388
3.717945008302495
3.717617923381576
3.717286783570894
3.716954436408174
3.716623420550317
3.716301855456593
3.716008756209265
3.715749003505405
3.715530832243835
3.715365512640501
3.715271288519623
3.715254224606825
3.716578967086982
3.934968286680217
10.56549856927225
46.18270556572085
1142170.907282665
209406.0572779004
73057.87151336302
35162.92587036412
20373.85685906573
13314.36735940094
9442.761296514553
7067.927483490706
5473.516684549716
4339.947824611943
3510.512777596902
2892.790403857809
2423.11304212828
2054.741603486567
1759.894847465095
1520.526563146391
1323.840617396401
1160.435812763045
1023.287424343116
907.0959083984537
807.8330898272828
722.4045655985559
648.3770963342297
583.7869153266373
526.9896884536099
476.7768104981149
432.1921658373766
392.4510293736592
356.9046787740854
325.0129394979513
296.3227921587765
270.4515425291382
247.0735862722895
225.9099727394517
206.7201548759799
189.2954305202524
173.4536982611397
159.0352300536624
145.8992456437194
133.9211195608427
122.9900840742716
113.0073445124361
103.8845548796331
95.54256229364884
87.91032260412882
80.92395866234635
74.52594644746094
68.66440628626972
63.2924727530071
58.36774216733518
53.85179377226621
49.70977397997124
45.91003402784977
42.42380243812996
39.22488917320107
36.28951083261204
33.59616369331704
31.12547839854735
28.86010392896954
26.78460655345471
24.88541768830606
23.15101763359133
21.57165001186735
20.1396595269764
18.84934696859776
17.6983675050349
16.67408708035914
15.76282890099478
14.94532728168949
14.18869939519552
13.43149732527987
12.6150230742133
11.63673071907262
10.27847780334725
8.298627797165153
5.854866977928641
4.088197781972045
3.605525503940384
3.554313647473836
3.550440873071836
3.550012063619103
3.549796327120116
3.549581349240445
3.549354313707341
3.549114578358964
3.54886234358891
3.548597731495693
3.548321332665406
3.548033734062412
3.547734501375693
3.547430869466893
3.547119991245497
3.546801311689219
3.546476508882227
3.546147781880953
3.545817996987647
3.545489741796827
3.54517073570134
3.544879202918365
3.544620979836753
3.544404125818698
3.544239264251381
3.544150064287086
3.544130821234047
3.546377840955895
3.885513096050119
11.21480463284733
33.59292322493699
1142170.144491002
209401.974407399
73047.17252777526
35144.38715005139
20350.0540251164
13292.0638446584
9431.132888452064
7074.042723324264
5496.996151919136
4373.53500229853
3546.56102161846
2926.548737052197
2452.565282424371
2079.702829009785
1780.558712102906
1537.371688828105
1337.428389306221
1171.307528152956
1031.926121397534
913.9195295826034
813.2004447111374
726.6254070364184
651.7232244058619
586.4506979838462
529.1445658493358
478.5280809151841
433.6192768221795
393.6152870347737
357.8540524611983
325.7851990794109
296.9478440837274
270.953175591375
247.4707959958629
226.2179932586397
206.9512688887005
189.4596098757496
173.5591101203865
159.088639339122
145.9063344908357
133.8867403863907
122.9184612826743
112.9022329098901
103.7493530183531
95.38038259991723
87.72404212426979
80.71626352840704
74.29936298933002
68.42131513335342
63.03512310555411
58.09827066642748
53.57224547952938
49.42212512795196
45.61621883591243
42.12576562298104
38.92468211790005
35.9893074418321
33.29818785372814
30.83192819297696
28.57308123590954
26.50609144069809
24.61727878752913
22.89501806236812
21.32953430030286
19.91296323732488
18.63949551554996
17.5057698058847
16.50921464176198
15.63552474544886
14.86998315863215
14.18663249930272
13.5339051236975
12.82527766517802
11.97773252981383
10.84518197185357
9.133643099068399
6.73408560699421
4.44988840499129
3.535345560873185
3.41180637262893
3.402558666833917
3.401802912260019
3.401570391927615
3.40135641191613
3.401131506447524
3.400894075081741
3.400644230220372
3.400382156862469
3.400108429770121
3.399823651110411
3.399527414154608
3.399226474383563
3.398918337832486
3.398602547173875
3.398280795066975
3.397955269630179
3.397628853151313
3.397304176202929
3.396988609024927
3.396699748317826
3.396444195258867
3.3962301844674
3.39606663129024
3.395985962102583
3.395969687117873
3.399580083255624
3.895142375203365
11.75643065278265
29.952568327044
1142169.370429572
209397.8354410237
73036.31115964163
35125.52182767438
20325.72864326958
13269.07562347506
9418.852069154997
7080.2400194727
5522.84746529717
4412.470224522957
3589.928199435863
2968.3889877358
2490.863127482089
2114.923113271386
1812.624153414182
1566.026961709642
1362.598232363189
1193.101596200958
1050.577331569215
929.7305636050834
826.5107791772793
737.7946756151272
661.1229636206122
594.4555532054608
535.9741198945535
484.3659238602733
438.610185406774
397.8770076230502
361.4844898302609
328.8669352478884
299.5513557712631
273.1391857757642
249.2920298916444
227.7205115835468
208.1755007760339
190.4411708224042
174.329461315964
159.6756302459139
146.3346593785637
134.1783227635052
123.0927781078812
112.9765850484053
103.7390843155087
95.29906965579336
87.5836664460661
80.5273622911086
74.07116257267964
68.16185279955876
62.75135810705819
57.79618802845539
53.25695611886044
49.09796344090572
45.28683743819025
41.79421957743661
38.59350062908653
35.66060047327582
32.97377040748974
30.51342665152938
28.26203414194098
26.20403241181561
24.32579233256747
22.6157053667483
21.06402205532293
19.66286313650309
18.40631232674217
17.2903848838688
16.31518240517966
15.46838066243187
14.73922579257307
14.10985097007521
13.5384941420941
12.94553945269536
12.23439345461788
11.26548875270387
9.807323057662725
7.586925479337083
5.006404038602872
3.55914277546973
3.294305438462716
3.273311318529058
3.271851345476886
3.271582536845018
3.271368677707309
3.271145867355715
3.270910812507865
3.270663564803482
3.270404259891592
3.270133455557921
3.269851766858083
3.269558811883817
3.269260942924535
3.268955961809145
3.26864349573264
3.268325249012675
3.268003401883605
3.267680850053193
3.267360265473475
3.267048755338454
3.266763319168234
3.266511188480732
3.266301159228804
3.266139521560118
3.266069115116049
3.266059823364269
3.271407061966461
3.945033024706664
12.84287727685326
45.74538698575835
1142168.834778777
209394.9636888109
73028.78056948278
35112.44372281324
20308.88139730779
13253.25999855609
9410.810631007089
7085.704675573827
5542.815257779873
4442.08773446171
3622.386271300212
2999.04538980421
2518.489350857869
2140.396426033819
1835.416444181878
1585.869445742231
1379.531232225118
1207.34828065973
1062.437666736247
939.5172926981228
834.5189169337693
744.2938553426038
666.3659908475782
598.6951389811626
539.4150180744572
487.160119253095
440.87658702074
399.709600119114
362.9581606345613
330.0416242311372
300.4753172855559
273.8515256960728
249.8246714819676
228.0997196325233
208.4230666586076
190.5753382947255
174.365653035882
159.6270240172503
146.2126500344073
133.9929020043836
122.8528504614068
112.6902129273613
103.4136486063098
94.94135417117113
87.19989885776801
80.1232315889273
73.65182510274582
67.73194062106357
62.3149975837059
57.35703018326039
52.81821643506054
48.66246593419279
44.85705881201546
41.37233730057261
38.1814393236847
35.26006500071796
32.5862831234622
30.14036852236405
27.90467012662937
25.86351565705361
24.00314604471936
22.3116987042159
20.77935960712274
19.39816681553726
18.16217633044584
17.06776843339121
16.1129101682192
15.28877571449086
14.58895882123688
14.00047421557498
13.4911344665883
12.99172811730747
12.39553290722924
11.57125007740952
10.33825486696374
8.351783273209923
5.685283140082302
3.7058432199291
3.204641379225932
3.159561802039742
3.156654980972388
3.156311240927628
3.156095909989153
3.155875442696441
3.155643031111075
3.155398544807534
3.155142169097425
3.154874450988128
3.15459601585021
3.154306502698309
3.154011918482559
3.153710315953264
3.153401393975061
3.153086863947442
3.152768897590534
3.152450397708105
3.152134064179012
3.151826759662384
3.151544999021787
3.151296338711992
3.151090697809668
3.150930666675323
3.150871017642064
3.150870138799686
3.158435673906048
4.02365684225648
13.28902373920836
37.88624738404901
1142168.427952515
209392.778151362
73022.94801891336
35101.97489033299
20294.51538520604
13237.77493697557
9398.489154566067
7080.648830109707
5546.574926850743
4452.42205295087
3635.368687471427
3011.963568108816
2530.610071617098
2153.301333846989
1848.811119773387
1599.031177373294
1391.898075552101
1218.596344381044
1072.431180856644
948.244855457977
842.0452658061994
750.7296677463726
671.8508929802829
603.3894497885257
543.4334574536003
490.5981348533159
443.8133175818468
402.2116958160423
365.0823171022706
331.8362325144545
301.9818320404285
275.105590473907
250.8570457990155
228.9370489736729
209.0885297963822
191.08919199032
174.7456884658919
159.8889537353581
146.3704431803813
134.0590692308344
122.8386869342622
112.60601410908
103.2688864920158
94.74478341811768
86.95958805768289
79.84655430104624
73.34544742726629
67.40182384162748
61.96642056467965
56.99463140499284
52.44604814852634
48.28406230808474
44.47551950981471
40.99040526301324
37.80156372803043
34.88445527545351
32.21695173721054
29.77917444361066
27.55335841746642
25.52374583662031
23.67652782875847
21.99979431456455
20.48361253585021
19.11987417908398
17.90232330854925
16.8267940957152
15.8921785908076
15.09216229529672
14.42109622177073
13.86684913210384
13.4060483187546
12.97990573028578
12.48979478427317
11.80226181340704
10.75352628448175
9.009800581477888
6.409887052551682
3.989817235278049
3.150567625623112
3.059336312366771
3.05356320452187
3.053071647645104
3.052851453261697
3.052633078915443
3.052403247174824
3.052161562430592
3.051908153862913
3.051643555963302
3.051368402391554
3.051082348959771
3.050791101971103
3.050492929170639
3.050187589150962
3.049876795546103
3.04956270949392
3.049248235048969
3.048936089514269
3.048632932951333
3.048354848745521
3.048109465800549
3.04790835749969
3.047749741128181
3.047700787439701
3.047709845449312
3.058045452181955
4.129510366659056
13.57704829919771
34.29743175497585
1142167.981090071
209390.3939391585
73016.53319881664
35090.32991346627
20278.24985681234
13219.72225953805
9383.355033725251
7073.55033912102
5550.727426538055
4467.245033243214
3657.121487711282
3036.437080067728
2554.915944996153
2176.53690531974
1870.637527280621
1618.982095482709
1409.727772645695
1234.256260424017
1086.002655893453
959.8838404495763
851.9459025042153
759.1017985240886
678.9036068192328
609.303105932079
548.3670811245141
494.7047026010885
447.2199423585933
405.0245648637791
367.3906545999968
333.7153054202976
303.4954049556789
276.3079132949632
251.7944331918156
229.6491173314859
209.6091882993986
191.4474675639886
174.9664279026138
159.9934247358657
146.3768449561427
133.9829779557229
122.693452329048
112.4030957002701
103.0181534106914
94.45477017418212
86.63768634611421
79.49916230692116
72.97808954796837
67.01925417212641
61.5727234354048
56.59333367493088
52.04023850294306
47.87649176231032
44.06867279860038
40.58655829311868
37.40283493746973
34.49284799792957
31.83438501459916
29.40749015416842
27.19431567416296
25.17901522132538
23.34766383560449
21.68823051670184
20.19070929795081
18.84710796534051
17.65090058298228
16.59719452953124
15.68383185582363
14.90371283310413
14.25282231779032
13.72387115392121
13.30070440921976
12.93605239507907
12.5411072067605
11.97425142930417
11.07387988962767
9.561807271954073
7.116927860387976
4.398934340970409
3.143746627812231
2.971690482992576
2.960547579856837
2.959780809467085
2.959549745235673
2.959333112096225
2.95910574257821
2.958866703496267
2.958616104404753
2.958354470314039
2.958082442039023
2.957799687900606
2.957511649814998
2.9572167808641
2.956914887836044
2.95660768124281
2.956297307750964
2.955986667142037
2.955678482245727
2.955379197749862
2.955104622379028
2.954862113457765
2.954665503970638
2.954508148888678
2.954468712470679
2.954488125864426
2.968389867134878
4.274439620950225
13.75923311159111
29.59017420863464
1142167.277105127
209386.6378933428
73006.80991638207
35073.89641301526
20258.39814593248
13204.58852346937
9384.895731626872
7103.668558261154
5615.089103323849