/*--------------------------------*- C++ -*----------------------------------*\
| =========                 |                                                 |
| \\      /  F ield         | OpenFOAM: The Open Source CFD Toolbox           |
|  \\    /   O peration     | Version:  v1812                                 |
|   \\  /    A nd           | Web:      www.OpenFOAM.com                      |
|    \\/     M anipulation  |                                                 |
\*---------------------------------------------------------------------------*/
FoamFile
{
    version     2.0;
    format      ascii;
    class       volScalarField;
    location    "0.00000156";
    object      p;
}
// * * * * * * * * * * * * * * * * * * * * * * * * * * * * * * * * * * * * * //

dimensions      [0 2 -2 0 0 0 0];


internalField   nonuniform List<scalar> 
44064
(
0.06530713429352047
0.06530682392166529
0.06530650773396968
0.06530624732592702
0.06530612187078168
0.06530625441748218
0.065306737223791
0.06530752218998911
0.06530845811567382
0.06530948939472091
0.06531065262819308
0.06531195780989038
0.06531339103079763
0.06531493544686756
0.0653165763115573
0.0653183002680965
0.06532009487994864
0.0653219486571055
0.0653238510688446
0.06532579244229336
0.06532776379015044
0.06532975659526663
0.06533176256293875
0.06533377334915955
0.06533578027435466
0.06533777403085392
0.0653397443920167
0.06534167993067583
0.06534356775295935
0.06534539325407378
0.06534713990278054
0.06534878906051897
0.06535031983734758
0.06535170897613089
0.0653529307321285
0.06535395667207318
0.06535475525751845
0.06535529102641791
0.06535552321436539
0.06535540390322199
0.06535487645890263
0.06535387628453268
0.06535233754849723
0.06535021049286763
0.06534749229208663
0.06534426720045468
0.06534072814746018
0.06533708370307985
0.06533317126331178
0.06532790593439536
0.06532012381928423
0.06531006021613332
0.06529846436230888
0.06528550823328017
0.06527113092124753
0.06525532154752031
0.06523810166305286
0.06521947841005361
0.06519942460708528
0.06517785358474371
0.06515456565923278
0.06512920290017112
0.06510120916740662
0.0650707100155062
0.06504312904099341
0.06501814992363408
0.0649912717033669
0.06495996389055987
0.06492271664101264
0.06487993892789125
0.06483344817693816
0.06478551004681421
0.06473495045860189
0.06467964785903274
0.06461993977510302
0.06455615558278133
0.06448780742036672
0.0644146151547004
0.06433640833719249
0.06425297720455393
0.06416412955580898
0.06406969823069006
0.06396954597184466
0.06386357191924726
0.06375171980221761
0.06363398778466402
0.06351043999384033
0.0633812183914801
0.06324654846386794
0.06310683041018178
0.06296225783570082
0.06281305645964913
0.06266002533731822
0.0625041291824068
0.06234656981504328
0.06218884243581511
0.06203265413815658
0.06188073205193017
0.06173875974208852
0.0616131248579591
0.06150879616536922
0.06143198895733545
0.06139055588812461
0.06139453342684342
0.06145698121034909
0.06159585404085752
0.06184083728905719
0.06219579526408435
0.05756791618553191
0.05756794339919316
0.05756797395513822
0.0575680042159513
0.05756803661284997
0.05756807480329858
0.0575681240657049
0.05756819159456257
0.05756828413439545
0.05756840175410055
0.05756854024887634
0.05756870160070351
0.05756889132878644
0.05756911255379767
0.05756936726757905
0.05756965739006028
0.05756998499399264
0.05757035235044164
0.05757076201623821
0.05757121694094836
0.05757172056176073
0.05757227684940149
0.05757289018012034
0.05757356479451793
0.05757430415931257
0.05757511276669861
0.05757599731636456
0.05757696536582431
0.05757802510903088
0.05757918547079714
0.05758045616382422
0.05758184770320085
0.05758337141020738
0.05758503941314267
0.05758686464518707
0.05758886084176325
0.05759104254634796
0.05759342514648245
0.05759602498324619
0.05759885961670996
0.05760194840566772
0.05760531357052245
0.05760898122311808
0.05761297970524843
0.05761733660376248
0.05762207837187568
0.05762722542784909
0.05763277956802444
0.05763871847878036
0.05764502286851867
0.05765174306195702
0.05765899129241939
0.05766686637856655
0.05767548654846082
0.05768500915861586
0.05769558441277436
0.05770734370907572
0.05772045629523288
0.05773496978249139
0.05775034213243332
0.05776590903999974
0.05778223916780825
0.05780073342525842
0.05782109383013864
0.05783743985055021
0.05784991944020512
0.05786337052619609
0.05788032717837561
0.05789974038481144
0.05792110215723262
0.05794534674720653
0.05797136629686179
0.05799830374562405
0.05802682632993896
0.05805746700465222
0.05809004367891567
0.05812442178990488
0.0581606707993126
0.05819880302099373
0.05823875272821897
0.05828043823437987
0.05832374662627152
0.05836852390486744
0.05841457378965918
0.05846165605577155
0.05850948522009514
0.05855773140940603
0.05860602699245221
0.05865394276319437
0.05870110793218247
0.05874723426538983
0.0587920944392958
0.05883546766121325
0.05887706720838259
0.05891672635327943
0.0589544952004841
0.0589905494161748
0.05902435947493578
0.05905416493387878
0.0590777993575851
0.0590943199132313
0.05910355226963381
0.05910475706206048
0.05909630309857649
0.05907472070002483
0.05902934699559818
0.05894568834324066
0.0588824235167489
0.05591328791853576
0.05591329994884824
0.05591331354592002
0.05591332702131212
0.05591334128489993
0.05591335780108329
0.05591337850717174
0.05591340585852345
0.05591344226816917
0.05591348822622206
0.05591354216232343
0.05591360438668794
0.05591367723546366
0.05591376223819598
0.05591386026842337
0.05591397208214754
0.05591409849451735
0.05591424043428361
0.05591439900682724
0.055914575552709
0.0559147716013751
0.05591498832510676
0.055915224682882
0.05591547519396318
0.05591573638709609
0.05591601431225254
0.05591631608537295
0.05591664426655678
0.05591700102428689
0.05591738908184612
0.05591781154949734
0.0559182718258485
0.05591877362086227
0.05591932099684386
0.05591991840451317
0.05592057071948896
0.05592128327760429
0.05592206189234871
0.05592291285964176
0.05592384314119546
0.05592486103124712
0.0559259755223986
0.05592718580417629
0.05592847099023705
0.05592981134868912
0.05593121316042562
0.05593269498056237
0.05593426914657834
0.05593594115101688
0.05593771195856128
0.05593957463918605
0.0559415038067126
0.05594345106140874
0.05594534165758426
0.05594708227026027
0.05594860401499921
0.05594993913742155
0.0559511504568622
0.05595220515257933
0.05595304236303245
0.05595374714641021
0.05595451930325872
0.05595539907808215
0.05595594325131877
0.05595545645674529
0.05595434478937086
0.05595326817546439
0.05595272303323804
0.05595479467129758
0.0559589864781856
0.05596228491673724
0.05596316090958937
0.05596400486194469
0.05596632061420993
0.05596879761991339
0.05597148243898852
0.05597457424533435
0.05597822164637335
0.0559825042941578
0.0559875216593406
0.05599340901727436
0.05600031653716084
0.05600840939122774
0.05601787227650012
0.05602890904007742
0.05604174038566456
0.05605659874640198
0.05607373691263493
0.05609337993554366
0.05611572717222494
0.05614115301497139
0.05616996387717772
0.05620216068860916
0.05623761586314192
0.05627608670558343
0.05631715110450843
0.05636036417448596
0.05640489580957517
0.05644904655103741
0.05649107582615531
0.0565298792431955
0.05656411714643859
0.056591974972706
0.05661168599035295
0.05662347161767328
0.0566293487982726
0.05660784370850197
0.05646818053933639
0.05483830566395687
0.05483831503709102
0.05483832565002303
0.0548383361824574
0.05483834729242649
0.0548383600260702
0.05483837574597646
0.05483839608897313
0.05483842254317403
0.05483845525012755
0.05483849421537194
0.05483853961250766
0.05483859187298103
0.05483865240097606
0.05483872203631453
0.0548388013268987
0.05483889080588587
0.0548389910812786
0.0548391028767463
0.05483922705280587
0.05483936446224737
0.05483951519536345
0.05483967695819299
0.0548398455263314
0.0548400212233299
0.05484020989425374
0.05484041548269938
0.05484063914120725
0.05484088196049583
0.05484114533979874
0.05484143081575322
0.05484173999354829
0.05484207454753408
0.05484243622361611
0.05484282683461177
0.05484324825331219
0.05484370240515282
0.05484419126203664
0.05484471684253279
0.05484528121828652
0.05484588647322683
0.05484653452086229
0.05484722725469282
0.05484796949889483
0.05484877214634917
0.05484964891299429
0.05485061250222854
0.05485167575509629
0.05485285222697316
0.05485414437743123
0.05485552393371557
0.05485695758290624
0.05485845547459113
0.05486005837616511
0.05486180858835364
0.0548637417447384
0.05486585158385492
0.05486807178689067
0.05487030036565602
0.05487241796415166
0.0548743342131351
0.05487604717034042
0.05487760113336644
0.05487904007989339
0.05488052088597094
0.05488202552786781
0.05488319989907486
0.05488404330636663
0.05488521667089361
0.05488689015884448
0.05488874752317909
0.05489070373640916
0.05489224441828007
0.0548940208160902
0.05489642089385143
0.05489882950249571
0.05490138063754825
0.05490409345899237
0.05490692481605158
0.05490987213985232
0.05491293970618637
0.0549161214689794
0.05491941160023887
0.05492280665190538
0.05492630424132305
0.05492990423776611
0.05493360445665349
0.05493741984634972
0.05494136053723404
0.05494538032818977
0.05494952481482056
0.05495389203624743
0.0549585026830573
0.05496346606371105
0.05496892754969362
0.05497497287278375
0.05498182996323924
0.05498974528257013
0.0549985836327985
0.05500842847746644
0.05501978729612855
0.0550328648050614
0.05504773469260902
0.0550638787797325
0.05508015593957047
0.05510559178751223
0.05515612124269717
0.05486641751894872
0.05356708808154131
0.05356709654109803
0.05356710611860983
0.05356711560119284
0.0535671255033048
0.05356713658724467
0.05356714977250911
0.05356716611279089
0.05356718666078128
0.05356721206970325
0.05356724259762464
0.05356727744791758
0.05356731651863413
0.05356736119723618
0.05356741217387394
0.05356746976477061
0.05356753426155075
0.05356760602381208
0.05356768550516755
0.05356777326284749
0.05356786980025001
0.05356797483582246
0.05356808599274184
0.05356820019341767
0.05356831866759752
0.0535684458613134
0.05356858418274209
0.05356873436069352
0.05356889718063387
0.05356907365713702
0.05356926491533263
0.05356947215529433
0.05356969665900839
0.05356993979673279
0.05357020302866736
0.05357048790493864
0.05357079606434058
0.05357112923080978
0.05357148920866723
0.05357187787640066
0.05357229717709167
0.0535727491034749
0.05357323567582989
0.05357375891657486
0.05357432082940519
0.05357492339658323
0.05357556860474365
0.05357625840533425
0.05357699437656655
0.05357777779993467
0.0535786150858891
0.05357952749747209
0.05358054663757876
0.05358170445791594
0.05358302422888749
0.05358448024025027
0.05358601603852418
0.05358763882158109
0.05358940858384783
0.05359135346921013
0.05359344566216768
0.05359561709225446
0.05359775950329121
0.05359976458998216
0.05360163428442945
0.05360349731524346
0.05360552987697668
0.05360773910226384
0.05360994561349996
0.05361220598775004
0.05361474695563045
0.05361785917700165
0.05362178145168914
0.05362512227886737
0.05362834903366857
0.05363244645204069
0.05363682651843855
0.05364151765202779
0.05364655617607215
0.05365196397410128
0.05365775386439055
0.05366393511286712
0.0536705149185534
0.05367749644757382
0.05368487695578103
0.05369264996970076
0.05370079572593111
0.0537092955386278
0.05371813569887406
0.05372724910419529
0.05373659886286334
0.05374615602595165
0.0537558245652921
0.05376557312605824
0.05377538434686693
0.05378518019338679
0.05379497732258528
0.05380492261677003
0.05381496784689797
0.05382505778011314
0.05383527716572633
0.05384538832609059
0.05385536658427138
0.05386515392393292
0.05386999311406345
0.05386868096008643
0.05396885803792378
0.05346465920757582
0.05241648815135096
0.05241649509513362
0.05241650295561472
0.05241651072596454
0.0524165187899847
0.05241652769354915
0.05241653808169031
0.05241655071375668
0.05241656642455318
0.05241658591918564
0.0524166090518015
0.05241663530038094
0.0524166649515456
0.05241669873918535
0.05241673721157998
0.05241678065768543
0.05241682931215325
0.05241688344306453
0.05241694338227155
0.05241700953269385
0.0524170822395397
0.05241716122350931
0.05241724468242354
0.05241733081175847
0.05241742089759586
0.05241751791569611
0.05241762347462689
0.05241773817668866
0.05241786269231979
0.05241799785636101
0.05241814459464172
0.05241830390521945
0.0524184768659323
0.05241866464159595
0.05241886848865945
0.05241908975902503
0.05241932990281165
0.05241959047287477
0.05241987313028805
0.05242017964669332
0.05242051190462153
0.05242087189530505
0.05242126171148122
0.05242168353484838
0.05242213961738872
0.05242263225439367
0.05242316374651978
0.05242373634702072
0.05242435218617723
0.05242501316862837
0.05242572088103964
0.05242647658430725
0.052427281201312
0.05242813476043532
0.05242903548713394
0.05242998633862501
0.05243102467947556
0.05243221291647955
0.05243357171917849
0.05243506343200915
0.05243666542012826
0.05243839800119983
0.05244025069976251
0.05244217192173133
0.05244409090753181
0.05244589616504057
0.05244749547626223
0.05244891866111938
0.05245028307967193
0.0524516723282975
0.05245315520334554
0.05245481394374733
0.05245696546237354
0.05245968575805663
0.05246222555788304
0.05246458148183983
0.05246723261828572
0.05247022603996466
0.05247349795706998
0.05247708090806317
0.05248101978574042
0.05248533894723601
0.05249007692251913
0.052495275264045
0.05250097336757677
0.05250721399716609
0.05251403698100086
0.05252148244101761
0.05252960529166928
0.05253842527318053
0.05254797795477514
0.05255829773162418
0.05256936010520148
0.05258116618607776
0.05259369361072275
0.05260683922523918
0.0526204810964604
0.05263453368384365
0.05264879328662427
0.05266310817712866
0.05267737696937145
0.05269129156715819
0.05270461275622462
0.05271879483386917
0.05273145365443662
0.0527169464191491
0.05291527102052881
0.05207105566322705
0.05140345410479508
0.05140346104000655
0.05140346888990124
0.0514034766418344
0.05140348465896917
0.05140349345100582
0.05140350361055748
0.05140351577530635
0.0514035304713391
0.05140354791416149
0.05140356759882661
0.05140358989963962
0.05140361529443631
0.05140364358304965
0.05140367532397793
0.05140371086789802
0.05140375042144438
0.05140379419145671
0.05140384244113184
0.05140389550151245
0.05140395367754987
0.05140401677863363
0.05140408324793286
0.05140415105546976
0.05140422083309254
0.05140429530872387
0.05140437601522939
0.05140446334331987
0.05140455770531809
0.05140465966410132
0.0514047698575
0.05140488897539789
0.05140501776561898
0.05140515704055525
0.05140530768318786
0.05140547065271043
0.0514056469920656
0.05140583783558364
0.0514060444143435
0.05140626806343073
0.05140651023106522
0.05140677248678434
0.05140705652908022
0.05140736419171874
0.05140769744730527
0.05140805840681829
0.05140844931355827
0.0514088725302006
0.05140933051875997
0.05140982581307732
0.05141036097878368
0.05141093854816099
0.05141156091765944
0.05141223019623611
0.0514129479969401
0.05141371510880913
0.05141453068479675
0.05141539116184888
0.05141629462001051
0.0514172675232106
0.05141835704859595
0.05141956863005745
0.05142089296357854
0.05142236399314923
0.05142395855683312
0.05142557642744244
0.05142713565817515
0.05142859618016566
0.05142999624632977
0.0514314445763772
0.05143302866616912
0.05143472112380036
0.05143656578352988
0.05143881355370434
0.05144055472190764
0.05144250359879677
0.05144538541593623
0.05144831606927057
0.05145143584555547
0.0514548033366237
0.05145842771254786
0.05146233429098344
0.05146654173947394
0.05147106971296363
0.05147594163585095
0.05148118659928241
0.05148682916710522
0.05149289041787482
0.05149940785128043
0.05150639599455117
0.05151388404214022
0.05152190708756414
0.05153046585040418
0.05153958690549862
0.05154928696244779
0.05155955116914762
0.05157035066705901
0.05158168725833061
0.05159346727812823
0.05160565003912303
0.05161829539195176
0.05163124564591037
0.05164425904136305
0.05165971779320302
0.05168092635342796
0.05163186948578771
0.05205296892072676
0.05064744008653068
0.05048254167636135
0.05048254796979485
0.05048255509311567
0.05048256211906554
0.05048256934300134
0.05048257714312707
0.05048258591337585
0.05048259606393583
0.05048260796048554
0.05048262191637021
0.05048263816618386
0.05048265730765295
0.05048267882110399
0.05048270212288242
0.05048272809951199
0.05048275717934523
0.05048278950612485
0.05048282520584996
0.05048286445956331
0.05048290750469248
0.05048295452999974
0.05048300521394083
0.05048305801275611
0.05048311152568621
0.05048316680627305
0.0504832258852896
0.05048328964361655
0.05048335834025364
0.05048343229835199
0.0504835119453699
0.05048359776218022
0.05048369027271284
0.05048379005163581
0.05048389773471673
0.050484014026032
0.05048413970484115
0.05048427563485648
0.05048442277443159
0.05048458218911217
0.05048475506699666
0.05048494273616768
0.05048514668429045
0.05048536857934692
0.0504856102907937
0.05048587391137425
0.05048616177968095
0.05048647650311136
0.05048682098063095
0.05048719842366874
0.05048761237217624
0.05048806670279304
0.0504885656260429
0.05048911366760957
0.0504897156259639
0.05049037650074467
0.05049110139905594
0.05049189541458089
0.05049276335960066
0.05049370883072651
0.05049473222850467
0.05049583314718561
0.05049703911733686
0.05049842616474872
0.05050002877131891
0.05050181080675364
0.05050372931495978
0.05050572597609071
0.0505077445889181
0.05050973875430454
0.05051165097687595
0.0505135052281753
0.05051551500646059
0.05051773930015538
0.05052028662997225
0.05052354922833935
0.05052655828314662
0.05052930816296034
0.05053257313859755
0.05053606362016791
0.05053982828329186
0.0505438708968179
0.05054819490806101
0.05055281645630288
0.05055774790410229
0.05056299523685873
0.05056856486792605
0.05057446276583426
0.05058068749048092
0.05058724825536209
0.05059413214822585
0.0506013322717443
0.05060884155265191
0.05061662301299063
0.050624652481917
0.05063288651232268
0.05064126103942018
0.05064968103125245
0.05065805883688963
0.05066620875774372
0.05067388212462062
0.05068082511653459
0.05068658048716304
0.05068919123262722
0.050688630894252
0.05070724724613461
0.050518574656239
0.05106460089909357
0.04991185208635517
0.04969079534189828
0.04969080079686537
0.04969080697062704
0.04969081305791707
0.0496908193151827
0.04969082608533076
0.0496908337679014
0.04969084284283809
0.04969085378250592
0.04969086697916146
0.04969088262678863
0.04969090032611082
0.04969091968026535
0.04969094107907429
0.04969096499589356
0.04969099159166245
0.04969102092331077
0.04969105306074895
0.04969108811475369
0.04969112624443621
0.0496911675942182
0.04969121196552685
0.04969125820436936
0.04969130487106249
0.04969135240290785
0.04969140270810229
0.04969145687293878
0.0496915151430319
0.04969157777407285
0.04969164513052494
0.04969171763193046
0.04969179573816698
0.04969187995729403
0.04969197085145623
0.04969206904120466
0.04969217521298603
0.04969229012673507
0.0496924146242388
0.04969254963878725
0.04969269620636622
0.04969285547848715
0.04969302873643477
0.04969321740626836
0.04969342307325639
0.04969364749365111
0.04969389261107282
0.0496941605699161
0.04969445372529868
0.04969477464827011
0.0496951261244861
0.0496955111445227
0.04969593288266252
0.04969639465856989
0.04969689987304526
0.04969745192115512
0.04969805408740909
0.04969870941297251
0.04969942061585662
0.04970018985654844
0.04970101816238175
0.04970190450961248
0.0497028441200854
0.04970382813012682
0.04970485663571218
0.04970597271999364
0.04970722559984394
0.04970860160052276
0.04971003286278725
0.04971145306842314
0.04971284008413509
0.04971421027953124
0.04971565915023674
0.04971718631045104
0.04971878501258863
0.04972081559146523
0.04972318170636516
0.04972553498233964
0.04972793981182723
0.04973051475516135
0.04973328480921774
0.04973627473331253
0.0497395083234462
0.04974299789979492
0.04974675768444937
0.04975080323601508
0.04975515060119411
0.04975981152455556
0.04976478797734538
0.04977008980374673
0.04977570666570615
0.04978162960748059
0.04978784502485258
0.04979431200584269
0.0498009940543456
0.04980782817657926
0.04981473740348232
0.04982160779566369
0.04982833182982856
0.04983472874030167
0.04984057222176907
0.04984563553595191
0.04985010181968892
0.04985214589905547
0.04984532271627626
0.04991100165491942
0.04966824209890677
0.0501760946824295
0.04929195138826974
0.04893606500231085
0.0489360702435834
0.0489360761753147
0.04893608201954446
0.0489360880045838
0.04893609441247444
0.0489361015346676
0.04893610969028193
0.04893611915184629
0.04893613009321237
0.04893614249217193
0.04893615585656551
0.04893617053632841
0.04893618702954833
0.04893620507512426
0.04893622486510206
0.04893624654303554
0.04893627020085921
0.04893629594890954
0.0489363239435414
0.04893635431688566
0.04893638682814143
0.04893642028913222
0.04893645353781611
0.04893648741411998
0.04893652354526463
0.048936562530991
0.04893660454781844
0.04893664984465765
0.04893669875856881
0.0489367516770984
0.04893680903460498
0.04893687131988118
0.04893693908366152
0.04893701294764243
0.04893709361383685
0.04893718187525219
0.04893727862820632
0.04893738488640209
0.04893750179690741
0.04893763065834093
0.04893777294083714
0.04893793030623175
0.04893810462588406
0.04893829801266083
0.04893851284964114
0.04893875180975923
0.04893901787938498
0.04893931438223182
0.04893964500113916
0.04894001379538512
0.04894042520861276
0.04894088405727809
0.04894139551095301
0.04894196507552862
0.04894259851680559
0.04894330171311545
0.04894408043611806
0.04894493998942143
0.04894588489681614
0.04894691857105641
0.04894804264305088
0.0489492549351818
0.04895054642504321
0.04895190806660284
0.04895337150977083
0.04895498439280015
0.048956718349426
0.04895852178822864
0.048960392367642
0.04896230197685063
0.04896412634809798
0.04896597937569817
0.04896805101127757
0.04897035146667932
0.04897277804091903
0.04897535794804405
0.04897811147068401
0.04898108872244952
0.04898433202632897
0.04898778735179272
0.04899145378490335
0.04899534502432985
0.04899946579331939
0.04900381507670067
0.04900839058216672
0.04901319147624402
0.04901820825362267
0.0490234383539917
0.04902886253216273
0.04903446301483438
0.04904021819249803
0.04904608631261271
0.04905203206648508
0.04905799816021948
0.04906392936425903
0.04906974554391045
0.04907539532321527
0.04908082788177634
0.04908602314079366
0.04909090445413132
0.04909665757893717
0.04910475289814663
0.04908897932432442
0.04920498498056662
0.04897085663842688
0.04957167026059653
0.04802167426235814
0.04828175139640424
0.04828175603157907
0.04828176127725096
0.04828176644375209
0.04828177172784704
0.04828177736853122
0.0482817836082285
0.04828179070748921
0.04828179885977518
0.04828180811787251
0.04828181837143405
0.0482818293478928
0.04828184155211384
0.04828185513293615
0.04828186963692772
0.04828188537302516
0.04828190252955165
0.04828192119283004
0.04828194145844329
0.04828196346401796
0.04828198733839473
0.04828201295867419
0.04828203953271865
0.04828206619023066
0.04828209329610826
0.04828212197697339
0.04828215284825007
0.04828218608546274
0.04828222189716395
0.04828226057486598
0.04828230246458047
0.04828234796169045
0.04828239751869359
0.04828245165408947
0.04828251096132069
0.04828257611868624
0.04828264790053211
0.04828272718971293
0.04828281499125951
0.0482829124471956
0.04828302085229517
0.04828314167042649
0.04828327655249101
0.04828342735976554
0.04828359617914484
0.04828378533141647
0.04828399739235938
0.04828423520941783
0.04828450191507899
0.04828480093630103
0.04828513599731787
0.04828551111410735
0.04828593058507707
0.04828639896444217
0.04828692097490785
0.04828750137759537
0.04828814482702537
0.04828885566495969
0.04828963763198584
0.0482904934583388
0.04829142429584836
0.04829242906904877
0.04829350377055597
0.04829464005409002
0.04829582182834413
0.04829702483749192
0.04829824621102496
0.04829951178881063
0.04830084207556251
0.0483022449683241
0.04830369688257228
0.0483050929387956
0.04830647808724323
0.04830799134311187
0.04830972466598672
0.04831159438191029
0.04831294174045282
0.04831456453947775
0.04831703134731954
0.0483195217512867
0.04832214621158507
0.04832496769022376
0.04832798295286081
0.04833119271057626
0.04833460092680399
0.04833820794042936
0.04834200912820861
0.04834598784484605
0.04835012989677227
0.04835440218012811
0.04835876722992967
0.04836317654387136
0.04836755644285637
0.04837182836724629
0.0483758773294678
0.04837957608458937
0.04838274441319986
0.04838518016205041
0.04838661983231055
0.04838678990773288
0.04838483358393808
0.04838050151712482
0.0483815918345951
0.0483278636476814
0.0484346525199942
0.04809051029053452
0.04873870834786482
0.04743606255842994
0.04766746570309885
0.04766746994842841
0.04766747475271856
0.04766747948239505
0.04766748430993166
0.04766748943461961
0.04766749504151156
0.04766750131458353
0.0476675083654255
0.04766751618233489
0.04766752466697767
0.04766753373491609
0.04766754373550314
0.04766755451818204
0.04766756567331545
0.04766757748637657
0.04766759008719261
0.04766760350695047
0.04766761779243621
0.04766763303388993
0.04766764931477067
0.04766766648365679
0.0476676837812708
0.04766770046850556
0.04766771705442418
0.04766773455862769
0.04766775338908943
0.04766777367638379
0.04766779560886075
0.04766781945145436
0.04766784552546183
0.04766787421031167
0.04766790595432551
0.04766794128632607
0.04766798082793598
0.04766802530734487
0.04766807557473779
0.04766813261931948
0.04766819758775739
0.04766827180374515
0.04766835678822488
0.04766845427985418
0.04766856625560903
0.04766869495081189
0.04766884287623119
0.04766901284037992
0.0476692079693369
0.04766943172486941
0.04766968792018351
0.04766998073145363
0.04767031470262763
0.04767069474050013
0.04767112609512159
0.04767161431469096
0.04767216517276246
0.04767278456822201
0.04767347836335762
0.04767425214474255
0.04767511088713351
0.04767605849618264
0.04767709721141679
0.04767822692541857
0.04767944445703463
0.04768074285324039
0.04768211008997889
0.0476835251263748
0.04768495691232478
0.04768640187278251
0.0476878883348489
0.04768945040714331
0.04769110861753364
0.04769279924737103
0.04769443839671988
0.04769608431778481
0.04769793780573275
0.04770009156563003
0.04770259949528156
0.04770526422740562
0.04770770765846712
0.04771023070060088
0.04771291222481774
0.04771575218761839
0.04771872695753534
0.04772183347788575
0.0477250619336611
0.04772839534447857
0.04773181632359635
0.04773529561213242
0.0477388038506079
0.04774229181751055
0.04774570198995935
0.04774896007093769
0.04775196103341168
0.04775458344160344
0.04775665339799864
0.04775796518566144
0.04775823095991304
0.04775709368989945
0.04775404824924633
0.0477486514536449
0.04773965641714727
0.04772352764027879
0.04772008991971968
0.04763348874771997
0.04775547983689064
0.04734029266166068
0.04786964067631802
0.04696094742465378
0.04713302429002045
0.0471330275718005
0.04713303128570612
0.04713303494144962
0.04713303867102039
0.04713304262681395
0.04713304695317616
0.04713305180469431
0.04713305730268894
0.04713306350632646
0.04713307044745495
0.04713307814968069
0.04713308655080187
0.04713309553876611
0.0471331051269777
0.04713311541360702
0.04713312645199035
0.04713313825409379
0.04713315084052445
0.04713316425601561
0.04713317853735759
0.04713319356781554
0.04713320886196579
0.04713322404400157
0.04713323944376354
0.04713325568916133
0.04713327314821484
0.0471332919518699
0.04713331225500415
0.04713333426737683
0.0471333582419203
0.0471333844758941
0.04713341331977079
0.04713344518764574
0.04713348056865193
0.04713352003995593
0.04713356428158962
0.047133614093118
0.04713367041193932
0.04713373433283749
0.04713380712818596
0.04713389026800392
0.04713398543934655
0.04713409456538473
0.04713421982513811
0.04713436367459033
0.04713452886905191
0.04713471848559869
0.0471349359435313
0.04713518502010602
0.04713546985820268
0.04713579496138603
0.04713616516945996
0.04713658560619677
0.04713706159107151
0.04713759850578916
0.04713820160132252
0.04713887572520131
0.04713962494984752
0.04714045208674116
0.04714135806545617
0.04714234116248514
0.04714339610409599
0.04714451339764568
0.04714567896936309
0.0471468705768859
0.04714804366130017
0.04714915042903765
0.04715020588005669
0.04715127836526979
0.04715241913397821
0.04715359159627542
0.0471546648153377
0.04715565539697929
0.04715677899698571
0.04715809438193491
0.04715950992572689
0.04716125453904083
0.04716305662047533
0.0471648782736477
0.04716688000218731
0.04716900620585674
0.04717124548036657
0.04717360641299067
0.04717608265486034
0.04717866172638471
0.04718132709357747
0.0471840483460875
0.04718679254077604
0.04718950619101336
0.04719212517441473
0.04719456603113599
0.04719671361828023
0.0471984336603794
0.04719953734483609
0.04719980356698122
0.04719893193489568
0.04719656483220233
0.04719215574180893
0.04718535747963849
0.04717592764640983
0.04715559834517163
0.047161508477942
0.04705821845557533
0.04721649300686937
0.04682512983890811
0.04730369657159975
0.04583551763663343
0.04663454124857895
0.04663454442870467
0.0466345480274171
0.04663455156889797
0.04663455517967172
0.0466345590061837
0.04663456319140336
0.04663456790148493
0.04663457328848453
0.0466345794437057
0.04663458638624245
0.04663459401092086
0.0466346019191208
0.0466346102105988
0.04663461919456866
0.04663462870557387
0.04663463872241973
0.04663464924754551
0.04663466029739952
0.0466346719186912
0.04663468416492435
0.04663469691718163
0.04663470951830083
0.04663472109832838
0.04663473200359418
0.04663474330003981
0.04663475537343589
0.04663476832650993
0.04663478231491924
0.04663479756313562
0.04663481434216978
0.0466348329697794
0.04663485381939429
0.04663487732967269
0.04663490401469284
0.04663493447557663
0.04663496941370763
0.0466350096454958
0.04663505611862439
0.04663510992964753
0.04663517234256299
0.04663524480781861
0.04663532898113219
0.04663542674220025
0.04663554021478448
0.0466356717895076
0.04663582414937224
0.046636000297271
0.04663620358376415
0.04663643773191305
0.0466367068544656
0.0466370154584561
0.04663736843155171
0.04663777100299159
0.04663822866944903
0.04663874707257489
0.04663933181224501
0.0466399881778356
0.04664072077433305
0.04664153300900831
0.04664242642942872