/*--------------------------------*- C++ -*----------------------------------*\
| =========                 |                                                 |
| \\      /  F ield         | OpenFOAM: The Open Source CFD Toolbox           |
|  \\    /   O peration     | Version:  v1812                                 |
|   \\  /    A nd           | Web:      www.OpenFOAM.com                      |
|    \\/     M anipulation  |                                                 |
\*---------------------------------------------------------------------------*/
FoamFile
{
    version     2.0;
    format      ascii;
    class       surfaceScalarField;
    location    "0.00000156";
    object      phi;
}
// * * * * * * * * * * * * * * * * * * * * * * * * * * * * * * * * * * * * * //

dimensions      [0 3 -1 0 0 0 0];
oriented        oriented;


internalField   nonuniform List<scalar> 
87612
(
1.562771004908037e-06
3.903389615715257e-08
3.058372053105608e-06
1.177716413451884e-07
4.495520391688958e-06
1.994434672223754e-07
5.881041267346032e-06
2.861090562294316e-07
7.220731592984903e-06
3.79049777689334e-07
8.521117093034596e-06
4.77877036635302e-07
9.791286126344953e-06
5.804580529820747e-07
1.104300163495865e-05
6.846408402734124e-07
1.228850839676085e-05
7.905626753980233e-07
1.353891282296854e-05
9.000820252835879e-07
1.480399911465223e-05
1.015347387614676e-06
1.609257510166296e-05
1.138273576584659e-06
1.741281345546043e-05
1.270553124899154e-06
1.877237981540184e-05
1.413877007954892e-06
2.017853075343598e-05
1.569973353665983e-06
2.163819946550947e-05
1.740629243624398e-06
2.315806877189883e-05
1.927713972909769e-06
2.474463067595917e-05
2.133204184137587e-06
2.640423288591009e-05
2.359209801048438e-06
2.814311334217221e-05
2.608000217334566e-06
2.996742394405478e-05
2.882030695117795e-06
3.188324454806611e-05
3.183969200885565e-06
3.389658807710692e-05
3.516724044258986e-06
3.601339728927043e-05
3.883472736033226e-06
3.823953346671743e-05
4.28769250895328e-06
4.058075700433509e-05
4.733192942179142e-06
4.304269968972081e-05
5.224151051314008e-06
4.563082833227499e-05
5.765149177843548e-06
4.835039922914191e-05
6.361216050133383e-06
5.120640283560531e-05
7.017871379534253e-06
5.420349790290095e-05
7.741174330704091e-06
5.734593424817658e-05
8.537776251722094e-06
6.063746322804578e-05
9.414978057130387e-06
6.408123493022898e-05
1.038079262481351e-05
6.767968107935716e-05
1.144401261887191e-05
7.143438258336795e-05
1.261428414798723e-05
7.534592046407073e-05
1.390218690729721e-05
7.941370841203225e-05
1.531932172903565e-05
8.36358042599049e-05
1.687840702212655e-05
8.800869630464341e-05
1.859338596625892e-05
9.252705946592879e-05
2.047954604771425e-05
9.718347819376755e-05
2.255364961215927e-05
0.0001019681433038281
2.483406588893809e-05
0.0001068685575472741
2.7340877632551e-05
0.0001118693394190589
3.009590850421445e-05
0.0001169522939989317
3.312259280912386e-05
0.0001220969694609885
3.644563875394288e-05
0.0001272817576932847
4.009064646469992e-05
0.0001324849122910448
4.408436714823973e-05
0.000137683564907828
4.845689692221418e-05
0.0001428477177730618
5.324690988676245e-05
0.0001479372508266429
5.849887132341718e-05
0.0001529047739681657
6.425744059047307e-05
0.000157697187707771
7.056903273939353e-05
0.0001622568707096443
7.748248557512304e-05
0.0001665238154008152
8.504843166882558e-05
0.0001704391524107638
9.331825787004378e-05
0.0001739494349015088
0.0001023437248392442
0.0001770139579762533
0.0001121743448152481
0.0001796091406497412
0.0001228607687765057
0.0001817135670344844
0.0001344746165252451
0.0001832936622979651
0.0001471083748864997
0.0001843173777132017
0.0001608479686447274
0.0001847733156691263
0.0001757679521940617
0.0001846752300136411
0.0001919468217154456
0.0001840451987187603
0.0002094890913548522
0.0001829375221252576
0.0002284853825534454
0.0001814649553724117
0.0002490109770127947
0.000179743890495783
0.0002712078328466144
0.0001778484720790614
0.0002952767024067047
0.0001758564584663411
0.0003213865314726851
0.0001737501088030854
0.0003498206795432043
0.0001714036925676637
0.000380891654125386
0.0001688690242320736
0.0004146445623956101
0.0001661440582575605
0.0004513756589844483
0.0001632098262129004
0.0004913657542446143
0.0001600560744621773
0.0005348934194307284
0.0001566739666372874
0.0005822699966248707
0.0001530544030011802
0.0006338362405260469
0.0001491892419947063
0.0006899618751364468
0.0001450714757556565
0.0007510493168290344
0.0001406955007619388
0.0008175364934637083
0.0001360573467813212
0.0008899000589505987
0.0001311549329531287
0.0009686588199281942
0.0001259883285593297
0.001054377491693771
0.0001205600172729424
0.001147670788486389
0.0001148751122805955
0.001249207928792332
0.0001089415097502075
0.00135971754943039
0.0001027702605293854
0.001479992769620807
9.637391596154856e-05
0.00161089896656783
8.975742366922151e-05
0.00175338748659232
8.294040331159678e-05
0.001908471080057616
7.594659089818163e-05
0.002077264153113402
6.880345933231165e-05
0.002260980668465855
6.154205702396608e-05
0.002460942721808332
5.419681980022205e-05
0.002678590141923735
4.681035834168627e-05
0.002915485937258527
3.938615488336628e-05
0.003173379734158305
3.182682845389686e-05
0.003454234560229461
2.40891180270021e-05
0.003760023575226897
1.609692330720106e-05
0.004092986652819794
7.726595908118063e-06
0.004455574070099081
-1.214647759774912e-06
0.004850470736667879
-1.102161385950114e-05
0.005280626385699726
-2.214930680550605e-05
0.005749301427745998
-3.532558809591521e-05
0.006260143822190401
-5.150904753657466e-05
0.006817058664840658
0.007352387847063432
7.507292194656717e-09
3.152660397041888e-08
2.979043744586261e-08
9.548849609711715e-08
6.70467091672904e-08
1.621871955101873e-07
1.19751512033833e-07
2.334042533663728e-07
1.881835004388631e-07
3.106177892930975e-07
2.715851159599316e-07
3.944754211181495e-07
3.677648337500902e-07
4.842783351957966e-07
4.740794164289161e-07
5.783262575957263e-07
5.893239512172522e-07
6.753181406094894e-07
7.138726767441716e-07
7.755332997541418e-07
8.48382667410118e-07
8.808373969500682e-07
9.934645601746151e-07
9.931916838198037e-07
1.149938863867566e-06
1.114078821208099e-06
1.318852784078426e-06
1.244963087741556e-06
1.501456310293796e-06
1.387369827450035e-06
1.699183826335845e-06
1.54290172758022e-06
1.913645964420568e-06
1.713251834825021e-06
2.146630246439224e-06
1.900219902117664e-06
2.400108529335057e-06
2.105731518152551e-06
2.676249438730469e-06
2.331859307938248e-06
2.977433621275572e-06
2.580846512571549e-06
3.306268046561127e-06
2.855134775599178e-06
3.665591902337043e-06
3.157400188483327e-06
4.058459574292919e-06
3.490605064076451e-06
4.48807392142716e-06
3.858078161817977e-06
4.957835532315031e-06
4.263431331291026e-06
5.471460638535779e-06
4.710525945092042e-06
6.03300539010287e-06
5.203604426275452e-06
6.646890099059821e-06
5.747331341176795e-06
7.317924481116037e-06
6.346836997477182e-06
8.051333575549805e-06
7.007765236269048e-06
8.852783918284718e-06
7.736325908986002e-06
9.728409393179815e-06
8.539352582235374e-06
1.068483598769625e-05
9.424366030295879e-06
1.172920445059086e-05
1.03996441559774e-05
1.286918963031523e-05
1.147429896826125e-05
1.411301518470727e-05
1.265836135290374e-05
1.546946256581742e-05
1.396287434792424e-05
1.694787392131795e-05
1.539999566662573e-05
1.855814984887033e-05
1.698311003870557e-05
2.031074415657082e-05
1.872695174001391e-05
2.221665662963464e-05
2.064773713909333e-05
2.42874158588919e-05
2.276330665967978e-05
2.65348590790938e-05
2.509343441234769e-05
2.897055941084975e-05
2.7660208172459e-05
3.160511503504268e-05
3.048803718492987e-05
3.444713443236633e-05
3.360361935661758e-05
3.750157444109893e-05
3.703620645596546e-05
4.07679906620149e-05
4.081795092732141e-05
4.424052222491066e-05
4.498436535931716e-05
4.791255667660895e-05
4.957487543506394e-05
5.177810770594051e-05
5.463332029408176e-05
5.582746954593068e-05
6.020807875048208e-05
6.004517941877213e-05
6.635132286654887e-05
6.440830370976901e-05
7.311936128412386e-05
6.888432133895619e-05
8.05724140396339e-05
7.342927788799643e-05
8.877330132100177e-05
7.798831414919571e-05
9.778468857804414e-05
8.24962124825102e-05
0.000107666446481931
8.687822064647153e-05
0.0001184787606125444
9.105321885818727e-05
0.0001302996183135248
9.493892037200607e-05
0.0001432226733726739
9.845691701654013e-05
0.0001573299720001871
0.0001015389610236139
0.0001726859081869811
0.0001041102553127199
0.0001893755274263321
0.0001061063223120426
0.0002074930243554998
0.0001074765843969876
0.0002271151204684776
0.0001081854335530741
0.0002483021278566896
0.0001082940411066318
0.0002710992252930007
0.0001079726233197105
0.0002955981201936246
0.0001074723191606301
0.0003218868356317145
0.0001069650017437266
0.00035032799696003
0.0001065242846730275
0.0003813323711960972
0.0001060134164474378
0.0004151554306211555
0.0001054552360931601
0.0004519338393387357
0.0001048533667113324
0.0004919676236264256
0.000104196285965495
0.0005355505001765435
0.0001034749740014957
0.0005829913085888812
0.0001026793067443347
0.0006346319077831698
0.0001017972083422181
0.0006908439735385507
0.0001008150101376566
0.0007520315150335815
9.971713130699824e-05
0.0008186343722943505
9.848597132467823e-05
0.0008911312189329112
9.710181843032383e-05
0.0009700429728225199
9.554277640727316e-05
0.001055936533716803
9.378471523952494e-05
0.001149428849654122
9.180130691840727e-05
0.001251191337113421
8.956408777287064e-05
0.001361954768575934
8.704251685674013e-05
0.001482514340536918
8.420618358537515e-05
0.00161373529983918
8.100880792464297e-05
0.001756584862253048
7.741320421576042e-05
0.001912066683766486
7.338054823874881e-05
0.002081296809090414
6.886989505162438e-05
0.002265491321652967
6.383779089133892e-05
0.002465974825968603
5.823689293808256e-05
0.002684191039876992
5.201136929267175e-05
0.002921711460903924
4.513660109628565e-05
0.003180254502354692
3.765743964414861e-05
0.003461713721681586
2.954470128417558e-05
0.003768136313586869
2.077267544747899e-05
0.004101758678656475
1.131693486536682e-05
0.00446502981068119
1.153351178797116e-06
0.00486063432035445
-9.730138993001114e-06
0.005291509875871517
-2.129569744569924e-05
0.005760866986198694
-3.341098162564078e-05
0.006272259106370338
-4.544067555002934e-05
0.006829088358765043
0.007306947171513402
2.862681452249188e-09
2.866392251210776e-08
1.153200755644991e-08
8.68191699844184e-08
2.624989512533616e-08
1.474693079323521e-07
4.73867730314376e-08
2.122673754501383e-07
7.532144809858578e-08
2.826831142200538e-07
1.101733494498849e-07
3.596235197565051e-07
1.514918391040331e-07
4.429598455343713e-07
1.98308692503358e-07
5.315094041935121e-07
2.496713343267415e-07
6.239554987798383e-07
3.052677534239138e-07
7.199368806538886e-07
3.65347428679495e-07
8.207577216909122e-07
4.302331108071501e-07
9.283060016882991e-07
5.002446930311457e-07
1.044067238980949e-06
5.758020408830298e-07
1.169405739887035e-06
6.574277877748889e-07
1.305744080556353e-06
7.457399386960838e-07
1.454589576655413e-06
8.414475118299635e-07
1.617544261690067e-06
9.453508735532825e-07
1.796316540390614e-06
1.058346339016666e-06
1.992736052689053e-06
1.181433919571523e-06
2.208771727381974e-06
1.315725919046011e-06
2.446554513096481e-06
1.462451319824991e-06
2.708409374817242e-06
1.622945231176672e-06
2.996906277131616e-06
1.798602131694286e-06
3.314948163556657e-06
1.990838395755535e-06
3.665841897755943e-06
2.201157196946151e-06
4.053112530098363e-06
2.431224494064292e-06
4.480458647973587e-06
2.682883950294944e-06
4.951944970042466e-06
2.958174000129762e-06
5.472041291341137e-06
3.25934709353313e-06
6.045663904073612e-06
3.588891305520729e-06
6.678221024281235e-06
3.949554550950715e-06
7.375662663553933e-06
4.344371715443966e-06
8.14453541774201e-06
4.776695074621768e-06
8.992042671115445e-06
5.250228432278005e-06
9.926110798322446e-06
5.769065458729223e-06
1.095546194180815e-05
6.33773275780112e-06
1.20896940538306e-05
6.961238200608431e-06
1.333936890511514e-05
7.64512501904038e-06
1.471610884819339e-05
8.395531859498617e-06
1.623270319824609e-05
9.219258433205894e-06
1.79032251663067e-05
1.012383514915365e-05
1.974316042314419e-05
1.111759317801905e-05
2.176954863081453e-05
1.220974567004631e-05
2.400128192031777e-05
1.341047930552091e-05
2.645947453698343e-05
1.473101051547016e-05
2.9167505974979e-05
1.618360191378458e-05
3.215102795830232e-05
1.778158607432846e-05
3.543822229542006e-05
1.953944899789907e-05
3.906008800375089e-05
2.147305325257323e-05
4.305076110464173e-05
2.359977666061716e-05
4.74481520270178e-05
2.593803748110019e-05
5.229505947359651e-05
2.850666582515251e-05
5.763945040642889e-05
3.132363878031419e-05
6.35343499113853e-05
3.44044331274751e-05
7.003856693696113e-05
3.775957201829812e-05
7.721727514880656e-05
4.139096484288896e-05
8.514190849640967e-05
4.528739654985104e-05
9.388825687107899e-05
4.941726848865169e-05
0.0001035365745431261
5.372379447655921e-05
0.0001141722346246342
5.813745413955989e-05
0.0001258859586505224
6.25892212759757e-05
0.000138770906236255
6.700383741280274e-05
0.0001529153558633585
7.128959405128016e-05
0.0001684001515485005
7.534053762347515e-05
0.0001853245838541274
7.903342545865267e-05
0.0002038001365203217
8.222909419385216e-05
0.0002239194517332649
8.475481511195533e-05
0.0002457764069385689
8.643833635021069e-05
0.0002694157040547263
8.723253718150752e-05
0.0002948039193623211
8.717076572630251e-05
0.0003219486070868989
8.657226126808709e-05
0.0003509265014182335
8.58436327898367e-05
0.0003820609996743132
8.513207440614301e-05
0.0004158669890048323
8.434738601919877e-05
0.0004527185277256548
8.34921496245308e-05
0.0004928228600210965
8.256456984245385e-05
0.0005364780799585705
8.155754972749961e-05
0.0005839983287038473
8.046504862392721e-05
0.0006357244088867076
7.928068183100598e-05
0.0006920283403314649
7.799747991063741e-05
0.0007533147169539237
7.660794898384106e-05
0.0008200239032211287
7.510394752814295e-05
0.0008926352203885943
7.347659212752033e-05
0.0009716703282231515
7.171613403488202e-05
0.001057696991809416
6.981180742123958e-05
0.001151333176267769
6.775163320937024e-05
0.001253251511325263
6.552218897546427e-05
0.001364184212809835
6.310840568418528e-05
0.001484928123828172
6.049284233052919e-05
0.001616350863192838
5.768008566973536e-05
0.001759397618913831
5.465140945060286e-05
0.001915095359985607
5.138436506001124e-05
0.002084563853480995
4.78533257952502e-05
0.002269022360917728
4.402941252914943e-05
0.002469798739234695
3.988040468599213e-05
0.002688340047720148
3.537000844858321e-05
0.002926221857141324
3.046159747622251e-05
0.003185162913327051
2.512428136862244e-05
0.00346705103778918
1.931024835667009e-05
0.003773950346598816
1.296765796369214e-05
0.004108101269049447
6.039258465158934e-06
0.004471958210179728
-1.537364697639471e-06
0.004868210943517247
-9.843773535911108e-06
0.005299816284709787
-1.900504453315972e-05
0.005770028257195941
-2.914216919485924e-05
0.006282396231032037
-3.952833206314108e-05
0.006839474521633322
0.00726741883945026
2.002463780332918e-09
2.666145873836275e-08
8.067876695582014e-09
8.075375707595338e-08
1.836794311129682e-08
1.371692415244108e-07
3.317151270912375e-08
1.974638058588291e-07
5.277889911991628e-08
2.630757278101167e-07
7.736546067337107e-08
3.350369582064627e-07
1.067585608706276e-07
4.135667453415673e-07
1.403623357286505e-07
4.979056293364512e-07
1.774321825019209e-07
5.868856520049276e-07
2.174466208421042e-07
6.799224423114875e-07
2.604841833949202e-07
7.777201591396221e-07
3.068355279080234e-07
8.819546571725813e-07
3.566867447112866e-07
9.942160221774617e-07
4.102852258174593e-07
1.115807258778242e-06
4.679526310084304e-07
1.248076675365662e-06
5.300790557138122e-07
1.392463151948e-06
5.971173575619016e-07
1.550505959841404e-06
6.695804696392648e-07
1.723853428312137e-06
7.480416470256642e-07
1.914274875301332e-06
8.331368205291081e-07
2.123676553878135e-06
9.255674121105628e-07
2.354123921514231e-06
1.026100179580039e-06
2.60787660734681e-06
1.135556922529306e-06
2.887449534181836e-06
1.254779654150531e-06
3.195725431934045e-06
1.384682794181677e-06
3.535938757724331e-06
1.526302743208086e-06
3.911492581071599e-06
1.680767406361874e-06
4.325993984818917e-06
1.849303368701376e-06
4.783409007701601e-06
2.033244867104338e-06
5.288099792937443e-06
2.234043444694942e-06
5.844865326482186e-06
2.453278315681945e-06
6.458986153293575e-06
2.692667462276627e-06
7.136273516958666e-06
2.954079479670213e-06
7.88312340034769e-06
3.239546173217508e-06
8.706575977566847e-06
3.551275897673531e-06
9.614381073865554e-06
3.891667607174995e-06
1.061507023230687e-05
4.263325560208987e-06
1.171803610079504e-05
4.669074592647929e-06
1.293361987267634e-05
5.111975837797813e-06
1.427320760304185e-05
5.595342738378643e-06
1.574933629766562e-05
6.122757170082401e-06
1.737581073460077e-05
6.698085509533724e-06
1.916783208369171e-05
7.325494561577733e-06
2.114213957876984e-05
8.009609907409351e-06
2.331716657448575e-05
8.755872182314088e-06
2.571321226207699e-05
9.570747917950501e-06
2.835263023934349e-05
1.0461739921674e-05
3.126003595457685e-05
1.143742673342582e-05
3.446253548366717e-05
1.250753672372027e-05
3.798997801345438e-05
1.368306304425296e-05
4.18752347841079e-05
1.497645582977943e-05
4.61547592414908e-05
1.640195326081167e-05
5.086956204256342e-05
1.797600594607052e-05
5.606539772116882e-05
1.97178026360093e-05
6.17925532214467e-05
2.164999305062902e-05
6.810637652233916e-05
2.379929580555741e-05
7.50679723938769e-05
2.619440699417529e-05
8.274679730779118e-05
2.886126194421112e-05
9.122140192104218e-05
3.181988750560816e-05
0.0001005779489817278
3.508095827192269e-05
0.0001109111638583186
3.864182796585172e-05
0.0001223250889565905
4.248009157883366e-05
0.000134932642623272
4.654407409932813e-05
0.0001488513733428611
5.074325838527267e-05
0.0001642009672625537
5.496815256048062e-05
0.0001810996896789169
5.91126147864669e-05
0.0001996556742943271
6.306276111113047e-05
0.0002199693054085964
6.669153935778078e-05
0.0002421476286919129
6.98101003398366e-05
0.0002662971430726598
7.214032528509398e-05
0.0002924736944170501
7.345307422759288e-05
0.0003206358581443948
7.376699139844803e-05
0.0003506125842473616
7.336910317111717e-05
0.0003824588879016344
7.273118666266123e-05
0.0004165049055132477
7.209679147075758e-05
0.0004533529229175247
7.140851962254062e-05
0.0004935111318692945
7.065405904082119e-05
0.0005372325405402862
6.982961388057846e-05
0.0005848227738640674
6.892916993099341e-05
0.0006366248528362793
6.794566626948441e-05
0.0006930118439929411
6.687201694740612e-05
0.0007543883662759905
6.570030454497254e-05
0.0008211956156235481
6.442201004246439e-05
0.0008939135148910825
6.302802918769094e-05
0.0009730643090779204
6.150868263686241e-05
0.001059216338360232
5.985358529235054e-05
0.001152988273612275
5.805167960813517e-05
0.001255053417009459
5.609119228419248e-05
0.001366144700133773
5.395969385916807e-05
0.001487059622253181
5.164417409917607e-05
0.001618666382952828
4.913078121944454e-05
0.001761911011793551
4.640483159696036e-05
0.001917821309608087
4.345045942812654e-05
0.002087518225649823
4.025045056358464e-05
0.002272222369782261
3.678598365923267e-05
0.00247326320613904
3.303619082438773e-05
0.002692089840554986
2.897740324839723e-05
0.002930280644717309
2.457806630681696e-05
0.003189562250268633
1.979843066922454e-05
0.003471830673426764
1.46038343508623e-05
0.003779144942917176
8.954795180404927e-06
0.004113750308219898
2.804990068094724e-06
0.004478108015292037
-3.898509782802853e-06
0.004874914443368138
-1.121419530820549e-05
0.005307131970235184
-1.923221648370936e-05
0.00577804627837144
-2.805843354012487e-05
0.006291222448088452
-3.583523118789303e-05
0.006847251319281089
0.007231583608262367
1.639049358958243e-09
2.502240937236892e-08
6.60357963331776e-09
7.578922679050251e-08
1.503455738350945e-08
1.28738263765896e-07
2.715541968968193e-08
1.853429435434467e-07
4.322609080743053e-08
2.470050566863121e-07
6.342900599154284e-08
3.148340430130744e-07
8.768775369664729e-08
3.893079976302793e-07
1.155504725644665e-07
4.700429104619206e-07
1.463427532861447e-07
5.560933712789713e-07
1.794952058952782e-07
6.467699896979627e-07
2.149252380153825e-07
7.422901270168344e-07
2.52793521191246e-07
8.44086373994969e-07
2.932009348306845e-07
9.538086085336881e-07
3.362764417162124e-07
1.072731751890178e-06
3.822075275618983e-07
1.202145589518624e-06
4.312370249925845e-07
1.343433654516956e-06
4.836569979503688e-07
1.498085986881296e-06
5.398045038787545e-07
1.667705922381551e-06
6.00059771036423e-07
1.854019608142852e-06
6.648463904414422e-07
2.058889934472618e-06
7.346325732862978e-07
2.284337738668136e-06
8.099314323589715e-07
2.532577748273419e-06
8.912957731817168e-07
2.806085193357369e-06
9.792977116098808e-07
3.107723493505104e-06
1.074562547442138e-06
3.440673921890864e-06
1.177797527040186e-06
3.808257601472225e-06
1.289770865940883e-06
4.214020645917444e-06
1.411318016085971e-06
4.661861857555114e-06
1.543348491474665e-06
5.156069317547898e-06
1.686853299468147e-06
5.701360518486721e-06
1.842913027989291e-06
6.302926424770274e-06
2.012706643953113e-06
6.966479900994605e-06
2.197521060602289e-06
7.698308983697208e-06
2.398761530569127e-06
8.505335507599941e-06
2.617962919033683e-06
9.395179685400384e-06
2.856801905498729e-06
1.037623124584094e-05
3.117110155914839e-06
1.14577278503787e-05
3.400888415630516e-06
1.264984161296016e-05
3.710321609834133e-06
1.396377440883627e-05
4.047795021393748e-06
1.541186288610548e-05
4.415911490449735e-06
1.700769426554298e-05
4.817509611648722e-06
1.876623396249218e-05
5.255682850014321e-06
2.07039663404031e-05
5.73379943158346e-06
2.283904999291571e-05
6.255522583001006e-06
2.519148911065933e-05
6.824830244870244e-06
2.778332257747312e-05
7.446033542668565e-06
3.063883265677683e-05
8.123793729663338e-06
3.378477529667096e-05
8.863137379191393e-06
3.72506343639249e-05
9.669469777424247e-06
4.106890238587298e-05
1.054883832788586e-05
4.527539069102792e-05
1.150882924502281e-05
4.990957112542573e-05
1.255927704709168e-05
5.501494991909886e-05
1.371235239852794e-05
6.06394778700093e-05
1.498272401428347e-05
6.683600490658143e-05
1.638777154177769e-05
7.366292486638109e-05
1.794796331375453e-05
8.118660553581269e-05
1.968724515100265e-05
8.948212008379329e-05
2.163330783472026e-05
9.863188629800825e-05
2.381608604916937e-05
0.0001087283856438664
2.626414690573281e-05
0.0001198770281000258
2.900146551936503e-05
0.0001321953240096367
3.204079754187951e-05
0.0001458120413203452
3.537380719686556e-05
0.0001608679576075637
3.895936668510608e-05
0.0001775141301906748
4.271377561713428e-05
0.0001959012653622932
4.651543816135357e-05
0.0002161676428643733
5.023931799182704e-05
0.0002384237488614354
5.376724393161533e-05
0.0002627692171328609
5.692156415008502e-05
0.0002893193741985754
5.940998501724394e-05
0.0003181474372772177
6.0874071989701e-05
0.0003491484972748735
6.127777725464663e-05
0.0003820551826366927
6.094914680691469e-05
0.0004168335359609559
6.040117199502687e-05
0.0004539008977293963
5.982590932508196e-05
0.0004940863945392169
5.921218761194797e-05
0.0005378462622533947
5.854441164584947e-05
0.0005854905498301369
5.781641901945171e-05
0.0006373528454626579
5.702385451317958e-05
0.0006938044084992053
5.615936601583858e-05
0.0007552528547733283
5.521633731410738e-05
0.0008221386443252623
5.418750347455621e-05
0.0008949423487306175
5.306471933895132e-05
0.0009741870932135292
5.183875322766749e-05
0.001060442304471502
5.049974588866044e-05
0.001154327280951271
4.903694926154716e-05
0.001256516213636571
4.743856069973918e-05
0.00136774308869557
4.569166932505716e-05
0.001488806513627847
4.378220480790887e-05
0.001620575847469973
4.169467935078912e-05
0.001763998537250661
3.941219337319006e-05
0.001920103795585685
3.691636419510558e-05
0.002090014054827896
3.418727550454019e-05
0.002274951458472829
3.12034120585383e-05
0.002476247069585033
2.79415639396926e-05
0.002695351688673833
2.437643821980011e-05
0.0029338457704372
2.048488621004295e-05
0.003193453802278385
1.624839045805381e-05
0.003476067169178749
1.163620146408199e-05
0.003783757131911148
6.617431654548582e-06
0.004118769078029428
1.157361206592409e-06
0.004483568085739992
-4.775976715934939e-06
0.004880847781290665
-1.120889936343286e-05
0.00531356489288268
-1.815308517052972e-05
0.005784990464178537
-2.572544120096483e-05
0.006298794804118885
-3.087037750384029e-05
0.006852396255583963
0.007200713230758528
1.230067011460938e-09
2.379234235373688e-08
4.95574415680651e-09
7.206354963997823e-08
1.128303236298435e-08
1.22410975554104e-07
2.038188732662895e-08
1.762440885771518e-07
3.245763110125953e-08
2.349293129066827e-07
4.767783553210115e-08
2.996138385774475e-07
6.604788470693047e-08
3.709379484541292e-07
8.730362599439302e-08
4.487871691703945e-07
1.1096909162376e-07
5.324279056468454e-07
1.365809010763204e-07
6.211581802424298e-07
1.639286101784732e-07
7.149424179150337e-07
1.930934981266471e-07
8.149214860447881e-07
2.24205967687389e-07
9.226961389706865e-07
2.573555743700684e-07
1.03958214520587e-06
2.926676222101109e-07
1.166833541677973e-06
3.30309461146913e-07
1.305791815578785e-06
3.704868715802916e-07
1.457908576446804e-06
4.134401985324274e-07
1.624752595429102e-06
4.59441946289799e-07
1.808017860383778e-06
5.087960506563252e-07
2.009535830106019e-06
5.61838735012416e-07
2.231295054309797e-06
6.189409445597109e-07
2.475475538725965e-06
6.805117970500229e-07
2.744514340865808e-06
7.470010041844358e-07
3.041234286369713e-06
8.188961654270161e-07
3.368778760647864e-06
8.967237818743658e-07
3.730429985022695e-06
9.81056162357313e-07
4.129688265433681e-06
1.0725162399891e-06
4.57040177992282e-06
1.171782877053647e-06
5.056802680483668e-06
1.27959670102703e-06
5.593546694511361e-06
1.396766521301311e-06
6.185756604495659e-06
1.52417638467639e-06
6.839070037619039e-06
1.662793335060896e-06
7.559692033312127e-06
1.813675948689862e-06
8.35445289396986e-06
1.977983721607661e-06
9.230871912481383e-06
2.156987389423468e-06
1.019722757802437e-05
2.352080261737372e-06
1.126263497806429e-05
2.564790751275833e-06
1.243713112342049e-05
2.796796095966428e-06
1.373176906414542e-05
3.049937267643808e-06
1.515872171442736e-05
3.326235181563362e-06
1.673139635162254e-05
3.627908244367757e-06
1.846456089968549e-05
3.95739127475321e-06
2.037448331001743e-05
4.317355810920887e-06
2.247908545674775e-05
4.710731771399014e-06
2.479811315018052e-05
5.14073038046492e-06
2.735332396840585e-05
5.610868213587545e-06
3.016869482365346e-05
6.124992160990158e-06
3.327065134926676e-05
6.687305065503544e-06
3.668832145941102e-05
7.302391773071806e-06
4.045381567830407e-05
7.975245337881655e-06
4.460253712621624e-05
8.711292055131493e-06
4.917352440817467e-05
9.516410771459477e-06
5.420983120276934e-05
1.039694163501521e-05
5.975894700645114e-05
1.135968202803541e-05
6.587326451356129e-05
1.241200649650148e-05
7.261060039791368e-05
1.356383507233803e-05
8.003477695997523e-05
1.482969550207472e-05
8.821625965405525e-05
1.622873433633846e-05
9.723284746374272e-05
1.778491469853045e-05
0.0001071722052816718
1.952738183887085e-05
0.0001181345609596838
2.148907811533064e-05
0.0001302336277331745
2.370192088417095e-05
0.0001435991985515039
2.619279918312849e-05
0.0001583770793086022
2.898038916788256e-05
0.0001747265402059183
3.206157911337888e-05
0.0001928200754167932
3.538956573994344e-05
0.0002128396562378046
3.885164556494957e-05
0.0002349616690364261
4.229737477200812e-05
0.0002593234879257994
4.559542177264245e-05
0.0002860213271979319
4.858553751007813e-05
0.0003151573215397774
5.093993579844869e-05
0.0003467940989864943
5.225435817483219e-05
0.0003807407602602993
5.250448794300386e-05
0.0004165834061927605
5.210609440410548e-05
0.0004542992912682803
5.158904358850737e-05
0.0004946034453547938
5.102509582783885e-05
0.0005384102100140395
5.041221790151921e-05
0.0005861034277564386
4.974548629334366e-05
0.0006380195770708113
4.901902699842546e-05
0.0006945308677941165
4.822878279993967e-05
0.0007560430989718083
4.736884431171798e-05
0.0008229985828134656
4.643292558268782e-05
0.0008958782674596381
4.541428455638804e-05
0.0009752057342398257
4.430576008591882e-05
0.001061550828941958
4.309926981400956e-05
0.001155533771223173
4.178592735721774e-05
0.00125782955609335
4.035596168435502e-05
0.001369173054368429
3.879862868533504e-05
0.001490363846626855
3.71021502528229e-05
0.001622272325902481
3.525351569575635e-05
0.001765847171807718
3.323839802877808e-05
0.001922118913252656
3.104104987629168e-05
0.002092211402980371
2.864418051821244e-05
0.002277348327830905
2.602885312845591e-05
0.00247886239697478
2.317449752355741e-05
0.002698206044278728
2.005882885511009e-05
0.002936961439105639
1.665890286596852e-05
0.003196853728267522
1.294978879313645e-05
0.003479776283251573
8.906436297079193e-06
0.003787800484407203
4.494663838456084e-06
0.004123180850488044
-3.03463661279505e-07
0.004488366213239724
-5.527266309630936e-06
0.004886071583939011
-1.120448554172147e-05
0.005319242112114765
-1.736665385483453e-05
0.005791152632491648
-2.419653359586539e-05
0.006305624683859912
-2.660698769423365e-05
0.006854806709682329
0.007174106243064294
1.131533144339958e-09
2.266080920677862e-08
4.558775877102115e-09
6.863630690313468e-08
1.037944967544012e-08
1.165903017509166e-07
1.875148575294477e-08
1.678720524978135e-07
2.987059059837106e-08
2.238102080558824e-07
4.391106364097973e-08
2.855733655330381e-07
6.091905696602532e-08
3.539299551229587e-07
8.069701240876141e-08
4.2900921372621e-07
1.02799472397525e-07
5.103254456542496e-07
1.267061974579287e-07
5.972514551797016e-07
1.520252960933089e-07
6.896233192768999e-07
1.787667281321704e-07
7.881800540041006e-07
2.070812550663175e-07
8.94381612034989e-07
2.370161314516358e-07
1.009647268818595e-06
2.686476796290118e-07
1.135201993498533e-06
3.020940974172906e-07
1.272345397789243e-06
3.375117015423313e-07
1.422490972319753e-06
3.750899037848791e-07
1.587174393185371e-06
4.150476093516587e-07
1.768060154816123e-06
4.576314223334591e-07
1.966952017124118e-06
5.031154947163727e-07
2.185810981926412e-06
5.518020187092724e-07