/*--------------------------------*- C++ -*----------------------------------*\
| =========                 |                                                 |
| \\      /  F ield         | OpenFOAM: The Open Source CFD Toolbox           |
|  \\    /   O peration     | Version:  v1812                                 |
|   \\  /    A nd           | Web:      www.OpenFOAM.com                      |
|    \\/     M anipulation  |                                                 |
\*---------------------------------------------------------------------------*/
FoamFile
{
    version     2.0;
    format      ascii;
    class       volVectorField;
    location    "0.00000156";
    object      U;
}
// * * * * * * * * * * * * * * * * * * * * * * * * * * * * * * * * * * * * * //

dimensions      [0 1 -1 0 0 0 0];


internalField   nonuniform List<vector> 
44064
(
(0.0283180776727171 2.060822774026925e-05 8.672644564015767e-20)
(0.08455631697411663 6.111210176578457e-05 2.400987993987187e-19)
(0.1408150238808848 9.96895640278636e-05 4.166334289778409e-19)
(0.1972608813062136 0.0001367006445786248 5.960528464913178e-19)
(0.2533003063395493 0.0001725099930950393 7.97849122506035e-19)
(0.3070136887083447 0.0002073452494776121 1.014164440236668e-18)
(0.3556804109066513 0.0002413137203302056 1.212166409135814e-18)
(0.3976070187967884 0.0002743033211368332 1.36806462488684e-18)
(0.4335200755922954 0.0003068821727163915 1.502968318986964e-18)
(0.4648087301430014 0.0003396554564545648 1.59725535042069e-18)
(0.4923303796269434 0.0003726990072485653 1.681404683844498e-18)
(0.516745815981385 0.0004062237578824851 1.757306009300647e-18)
(0.538617233604144 0.0004404727180726377 1.826560260623038e-18)
(0.5584143382798068 0.0004756603992416901 1.890551321641715e-18)
(0.5765215765765946 0.0005119820772893878 1.935655745313945e-18)
(0.5932498927820142 0.0005496230905363574 1.978892124091636e-18)
(0.6088495279512623 0.000588761809077072 2.021298774817436e-18)
(0.6235217489216149 0.0006295710072405039 2.064668510480753e-18)
(0.6374287467819071 0.0006722191228235246 2.104008429075786e-18)
(0.650701644781842 0.0007168713221069699 2.118519455099563e-18)
(0.6634468377466357 0.0007636902671343611 2.129490959557448e-18)
(0.6757509600844216 0.0008128366025831659 2.120575330116067e-18)
(0.6876847665053932 0.0008644691976756733 2.091635874690867e-18)
(0.6993061662977985 0.0009187451643755405 2.064137053191597e-18)
(0.710662604030332 0.0009758196618717063 2.017564003440453e-18)
(0.7217929363391061 0.001035845490073748 1.972418383257148e-18)
(0.732728919010056 0.001098972468469494 1.908180522378673e-18)
(0.7434963906921191 0.001165346592719034 1.845019254075922e-18)
(0.7541162179581825 0.001235108957750117 1.782944525801771e-18)
(0.764605049955568 0.001308394432185778 1.721955345323335e-18)
(0.7749759182013271 0.001385330066550087 1.662142647854904e-18)
(0.7852387074075809 0.001466033215168232 1.603755611647473e-18)
(0.7954005162148705 0.001550609350214672 1.503886977853165e-18)
(0.8054659227125107 0.001639149544624708 1.404249822988152e-18)
(0.8154371699053642 0.001731727599102657 1.304973935886453e-18)
(0.8253142928103001 0.001828396783848956 1.20585217025626e-18)
(0.8350952235982341 0.001929186152743071 1.106503041435717e-18)
(0.8447759336230238 0.002034096358678577 1.006859483658668e-18)
(0.8543506933759204 0.002143094847457418 8.085202594496157e-19)
(0.8638125300548931 0.002256110246330312 6.037301607501677e-19)
(0.8731538896976136 0.002373025759934132 3.919391984126028e-19)
(0.8823672912565989 0.002493671590157084 6.466634937018122e-20)
(0.8914453101346016 0.00261781693167106 -2.794511927904722e-19)
(0.9003785302240991 0.002745162946813343 -5.270604573053841e-19)
(0.9091493892288117 0.002875340463754798 -5.459027066365641e-19)
(0.9177200010944544 0.00300792564526058 -8.161955327561166e-19)
(0.9260152693697872 0.003142499367598989 -8.424360553712712e-19)
(0.9339123523019431 0.003278694298252352 -8.681224521154126e-19)
(0.9412636815066211 0.003415841627226473 -8.948016007371691e-19)
(0.9479867083042348 0.00355197098631628 -9.196059612746266e-19)
(0.9542218556834015 0.003687432864731521 -9.33454314791543e-19)
(0.9601426584602325 0.003822763173355176 -1.140129466291958e-18)
(0.9657654552441084 0.003955452361868325 -8.647611658291668e-19)
(0.9710802326506067 0.004083892417688171 -7.630278673339769e-19)
(0.9760774096643723 0.00420693625516041 -6.268007308206875e-19)
(0.980744100102703 0.004323090567005105 5.168956278993358e-19)
(0.9850616650391788 0.004430749473702897 2.011446713100665e-18)
(0.9890045305666227 0.004528396772677138 4.094912255167791e-18)
(0.9925401235852329 0.004614791027590574 7.253368878529078e-18)
(0.9956293841838337 0.004689215942699994 9.020252087657889e-18)
(0.9982270841247006 0.00475131412560178 1.137604671061823e-17)
(1.000285793576602 0.004800599599879068 8.266196040598272e-18)
(1.001769032816562 0.004829033127174295 5.53531573525072e-18)
(1.002673554244219 0.004797164740397134 3.164139194020533e-18)
(1.003082929548808 0.004910077293384992 1.565267729192967e-20)
(1.003387707582558 0.004859247716232486 -9.523389009267431e-18)
(1.003568803973011 0.004860162047851767 6.451709943191414e-18)
(1.003325093383202 0.004775636187248803 4.567010377238386e-18)
(1.002839841313422 0.004730138976441414 9.351859901786224e-19)
(1.002316003373765 0.004649636531148054 -1.128342576210402e-18)
(1.002341846509858 0.004634137775315095 -2.246532212761217e-17)
(1.002606565136549 0.004637318949148723 -7.005277194961196e-18)
(1.00254540940248 0.004532538332089747 -2.422405599677147e-18)
(1.002461006694467 0.004453967075659785 6.92069100939953e-19)
(1.002433491585591 0.004404264930052675 1.056423297661974e-19)
(1.00239834566173 0.004327687908163087 8.790769365498958e-19)
(1.002352609012847 0.004244927006626836 -8.105244730527415e-19)
(1.002304416116374 0.00416002084696695 3.287965084897787e-17)
(1.002252727018299 0.004068017566573615 7.494598298671125e-18)
(1.002197640033703 0.003969631677526044 2.920960669640768e-18)
(1.00213895796878 0.003864719354621701 5.586822512041522e-17)
(1.002076682306948 0.003753108979155462 1.012423271288621e-17)
(1.002010805430342 0.003634659993168706 -7.678531014645152e-19)
(1.001941317481272 0.003509294011923147 3.059069554075783e-17)
(1.001868227947932 0.003376974900304971 -8.242325642723134e-18)
(1.001791637590386 0.003237742154739023 1.421141258051566e-17)
(1.001711707247529 0.003091700704686856 2.387868437356519e-18)
(1.00162861562409 0.002939080118117473 5.33430258131981e-17)
(1.001542351680763 0.002779356933508511 1.027518017370159e-16)
(1.001455997011558 0.002617523987895668 7.614663656342982e-17)
(1.001348396937851 0.002443146526638242 1.232583338671981e-16)
(1.001239000016481 0.002266839151821314 1.106275624686595e-16)
(1.001128685112109 0.002085356658701805 8.362235778700491e-17)
(1.001017627362842 0.00189949199640981 1.010716151209448e-16)
(1.000906074389115 0.001710108303617718 1.320128864008605e-16)
(1.000794190782162 0.001518679971772559 6.847459462857006e-17)
(1.000679243174537 0.001321403005932175 6.967015161371713e-17)
(1.000581564061387 0.001121923990659511 7.835044414897698e-17)
(1.000538247843024 0.0009351639250218848 4.463295805073658e-17)
(1.000501234360285 0.0007341484834138932 4.268438980329731e-17)
(1.00047159941864 0.0005274714854221817 3.326228162969682e-17)
(1.000450941526667 0.0003127256932394877 5.036269905656465e-17)
(1.000441431177615 8.567535381594396e-05 3.748914897641661e-17)
(1.000445989189203 -0.0001597571930296844 3.621108762322957e-17)
(1.000468911271969 -0.0004350330806749609 3.349338124361532e-18)
(1.000518726933322 -0.0007613177263783656 2.2809816109117e-17)
(1.000600112266494 -0.00106651539916877 2.880918889443008e-17)
(0.9953519026387597 -0.0008272013385202347 -2.278816201551003e-17)
(0.02089010448875308 2.922843966478198e-08 -2.698013382523933e-20)
(0.06281734275208833 4.599600927313934e-07 -8.047422668952813e-20)
(0.1051773915925701 1.334178103570111e-06 -1.576818158736722e-19)
(0.1481674615194181 2.674794817433408e-06 -2.59675870359514e-19)
(0.1916902635817297 4.487143206523247e-06 -3.627608773246592e-19)
(0.2350227910435972 6.768945697551378e-06 -4.657937742846378e-19)
(0.2766479310937109 9.477715482145114e-06 -5.416392757870206e-19)
(0.3147953674379964 1.252987914218367e-05 -6.331386960727503e-19)
(0.3484407251189269 1.585322255719002e-05 -6.940406775470214e-19)
(0.3778124661624224 1.94262772829375e-05 -7.336029317095208e-19)
(0.4037796506536512 2.328765767385811e-05 -7.516944076086933e-19)
(0.4270195774488569 2.746444726406838e-05 -7.545468849205272e-19)
(0.4479626800530695 3.196605445385344e-05 -7.535657862763306e-19)
(0.4669754378711949 3.68208335730609e-05 -7.535373728509551e-19)
(0.4843762503447552 4.206444198511802e-05 -7.34874419391123e-19)
(0.5004367871166138 4.773739526980173e-05 -7.190174848270533e-19)
(0.5153852256222728 5.38852363829654e-05 -7.056595914326024e-19)
(0.5294113949850376 6.055872823431566e-05 -6.785538745799856e-19)
(0.5426724848286346 6.78140040411381e-05 -6.543220921718845e-19)
(0.555298470400676 7.571286328068524e-05 -6.184399407158591e-19)
(0.5673968845055075 8.432321627414464e-05 -5.727477130680395e-19)
(0.5790568457558922 9.371960777274084e-05 -5.04505776785181e-19)
(0.5903523875289854 0.0001039835913115651 -4.3185125106468e-19)
(0.6013451856276725 0.0001152032815852458 -3.54945695387805e-19)
(0.6120867942977825 0.0001274714093894777 -2.721768371495991e-19)
(0.622620487896371 0.0001408873147484289 -1.921059310939422e-19)
(0.6329827703591712 0.0001555565283309779 -1.14347865385417e-19)
(0.6432046030339602 0.000171594813605317 -3.851858332321204e-20)
(0.6533124065198166 0.0001891286754638843 3.572625471131866e-20)
(0.6633288777486204 0.0002082958842157735 1.323973051494823e-19)
(0.6732736555582122 0.0002292462096178421 1.810317954025492e-19)
(0.6831638671849305 0.0002521422144047586 2.289275297132633e-19)
(0.6930145834160991 0.0002771600406615081 2.76153271522567e-19)
(0.7028392004373381 0.0003044901703582969 3.227902408073864e-19)
(0.7126497605821527 0.0003343381385333131 3.688574818190187e-19)
(0.7224572202909724 0.0003669251648852019 4.145282548191578e-19)
(0.7322716708305491 0.0004024886637243733 5.086075247443389e-19)
(0.742102513398048 0.0004412825926947069 6.036040316101342e-19)
(0.7519585833613281 0.0004835776090047762 5.987295133820464e-19)
(0.7618482071811228 0.0005296610316220866 5.89730954012857e-19)
(0.7717791600477808 0.0005798367390466521 6.79994693582172e-19)
(0.7817584762308362 0.0006344254358926631 6.654786420222954e-19)
(0.7917920592559357 0.0006937654417402379 6.536903675016663e-19)
(0.8018840704801388 0.0007582077421919846 6.510085011309735e-19)
(0.8120361840897675 0.0008281057578133738 6.698603357930258e-19)
(0.8222469647512974 0.0009037995138249325 4.801280101926023e-19)
(0.8325118109656269 0.0009855854522728376 3.128516110592309e-19)
(0.8428241483775654 0.001073671084493049 -9.094744598743569e-20)
(0.8531785891818141 0.001168110745862331 -5.023592891421877e-19)
(0.8635759366598073 0.001268781354246331 -9.531446108090783e-19)
(0.874027656239734 0.001375522464543975 -1.16828542141563e-18)
(0.8845540577641524 0.001488165362735748 -1.112912902583477e-18)
(0.8951684456461252 0.001606405683749973 -1.039990936587649e-18)
(0.9058407684303218 0.001729982437716233 -1.299586020615121e-18)
(0.9165060375787518 0.001858298487888796 -1.587079278747886e-18)
(0.9270623165744923 0.0019905351323905 -1.091805790359272e-18)
(0.937365260255519 0.002125458469532064 -5.855408298336298e-19)
(0.9472409918942651 0.00226201059432255 8.449635354242318e-19)
(0.9564606881970211 0.002398465757986093 2.266956344992964e-18)
(0.9648210220703118 0.002531020055019465 3.51577536213597e-18)
(0.9724189626017813 0.002657394098106396 4.383750244287098e-18)
(0.9795379341630434 0.002777927956807988 3.248696853365351e-18)
(0.9862347146153546 0.002893169403784905 9.229722982226235e-19)
(0.9923348476951878 0.003008408791075806 -3.221583324314598e-18)
(0.9976100487628096 0.003054448738815093 -4.581133679551474e-18)
(1.001791044651985 0.003134990848505824 -8.265485972922022e-18)
(1.004802948742035 0.003177358079852884 -1.86671644679005e-18)
(1.006706291040876 0.003249077128843357 3.348577201030602e-18)
(1.007622195738584 0.003213651828971843 1.391366957864578e-17)
(1.00792677437838 0.003232986856884345 5.144967383142415e-18)
(1.007284909446065 0.003240436904284653 -1.911096419057372e-17)
(1.006612493414697 0.003192095972251934 -1.444552865933248e-17)
(1.006876982762648 0.003173243452210621 -9.685668819772481e-18)
(1.006826710562431 0.003172787831566159 -2.215065206203411e-17)
(1.006684181516408 0.003158168873781455 1.484649104947308e-17)
(1.006578033431095 0.003136647711257457 -4.072905290031121e-18)
(1.006471599092194 0.003117762799139599 -7.013549250570815e-18)
(1.006354252978958 0.003098220780594385 1.135931200090726e-17)
(1.00623012238496 0.003075364990329415 -1.583092830769628e-17)
(1.00609860865923 0.003050221406114855 -2.863172771254987e-17)
(1.005959686216541 0.003022394416748479 1.390511914068241e-17)
(1.005813219869708 0.002991316055088808 -1.459064109049045e-18)
(1.005659287366651 0.00295650283111607 3.497726788900267e-18)
(1.005498111768295 0.002917409427971142 6.02099511195604e-17)
(1.005330034150463 0.002873412932522611 7.847395696316378e-17)
(1.005155433702067 0.002823821962493827 1.7149283726142e-16)
(1.004974811985642 0.002767858786661263 2.702544101878586e-16)
(1.004788860512692 0.0027050034324356 3.652640673535667e-16)
(1.004598271474131 0.002632942099676022 5.357765324673996e-16)
(1.004403322535593 0.002553345407579267 5.770640485531595e-16)
(1.004235210727633 0.002462797597230252 6.686255484935061e-16)
(1.004063849985465 0.002362193300120272 7.371995543265854e-16)
(1.00388915569946 0.002248146336191848 6.932539106647162e-16)
(1.003712114951206 0.002120492026707395 6.301869093112873e-16)
(1.003533823412399 0.001977704659516831 6.270341785416008e-16)
(1.0033556061939 0.001819655247217245 4.913952731021629e-16)
(1.003178087613154 0.001646058412327322 4.296604686631502e-16)
(1.00300928447997 0.001451132955870419 3.633609765051991e-16)
(1.002864724674157 0.001234666418416173 2.438188681819422e-16)
(1.002738494477196 0.0009989568471616083 2.032731725332115e-16)
(1.002634485261506 0.0007477700983516206 2.5819432802696e-16)
(1.002558378216699 0.0004766304138545504 2.225893255565678e-16)
(1.002517289213126 0.0001847298842250091 1.842130120642316e-16)
(1.002520982807034 -0.0001275225570889935 2.005259353460035e-16)
(1.002582583691664 -0.0004535376581085915 1.848150599868691e-16)
(1.002720745480474 -0.0008185259101306001 7.576735889308986e-17)
(1.002922855094591 -0.001302895209862183 5.804842177985535e-17)
(0.9897445957098496 -0.001467153423824463 -8.588400484377122e-18)
(0.01860662523628172 1.194124988866643e-08 3.177525261270203e-20)
(0.05595281704206093 1.978934308784731e-07 9.396271892118133e-20)
(0.09369083403404539 5.825071126262537e-07 1.276635399264947e-19)
(0.132023359489801 1.180942757326007e-06 1.518705508930432e-19)
(0.1709613294985367 2.002813903359902e-06 1.969639842933869e-19)
(0.2100884449052355 3.058875061704784e-06 2.347916302671235e-19)
(0.2483606949966866 4.346079175552183e-06 3.002181615448837e-19)
(0.284308625166273 5.83816456467344e-06 3.621877553652609e-19)
(0.3167530884769024 7.497489314807443e-06 4.174347545581826e-19)
(0.3453355142011175 9.291567278507258e-06 4.382388084042444e-19)
(0.3706599038304675 1.122675579486107e-05 4.495488234505513e-19)
(0.3934325116280731 1.332343829665317e-05 4.5281565492638e-19)
(0.4140359271421984 1.558590551380154e-05 4.681756153252097e-19)
(0.432783154792951 1.802581872309448e-05 4.934851932805027e-19)
(0.449954602923105 2.065962328956366e-05 5.015368780693627e-19)
(0.4657972499109553 2.350674335707736e-05 5.289419808413228e-19)
(0.4805235869209201 2.658950383331783e-05 5.520249232245819e-19)
(0.4943133057625713 2.993323793110771e-05 5.921051370508914e-19)
(0.5073166434482365 3.356640732252559e-05 6.300098898629425e-19)
(0.5196584321759879 3.752086015256803e-05 6.667390429696209e-19)
(0.5314425069090436 4.18322917131728e-05 7.026990566648659e-19)
(0.5427566717643462 4.654055275660149e-05 7.537298453298488e-19)
(0.5536789057619148 5.168817036863454e-05 8.086828444671965e-19)
(0.5642859388546239 5.731576465812468e-05 8.535852870857721e-19)
(0.5746657978996464 6.347725429503477e-05 8.745878232125376e-19)
(0.5848795986806002 7.022524387073792e-05 8.96024873244826e-19)
(0.5949514417535597 7.760426137617396e-05 8.964184761358858e-19)
(0.6049017542525646 8.567496118569551e-05 9.059428000206029e-19)
(0.6147482390185122 9.450318452448327e-05 9.218945744980505e-19)
(0.624506323223609 0.0001041608107118421 9.311105663590586e-19)
(0.6341895267221629 0.0001147271699295607 9.603378814204403e-19)
(0.6438097648616334 0.0001262899503381018 1.006986332317628e-18)
(0.6533775979615418 0.0001389460134785562 1.05655736023242e-18)
(0.6629024370517503 0.0001528023370494814 1.113983135119277e-18)
(0.6723927134918015 0.0001679770960093105 1.158721735562821e-18)
(0.6818560184833143 0.0001846008802956551 1.152189554229274e-18)
(0.6912992173067426 0.0002028180624382779 1.146930805454903e-18)
(0.7007285422330203 0.0002227883068262463 1.141097214205767e-18)
(0.7101496674510487 0.0002446881852692538 1.129591601530762e-18)
(0.7195677690273745 0.0002687131455768703 1.052820753757853e-18)
(0.7289875734638297 0.0002950810199082536 9.389423506149917e-19)
(0.7384134010851842 0.0003240373105428391 9.13564878590561e-19)
(0.7478492139248738 0.0003558406938300199 8.646063363146231e-19)
(0.7573080129756665 0.0003907697324583554 8.227828109568433e-19)
(0.7668200237578339 0.0004291653257577792 9.110656431801315e-19)
(0.7764170095839366 0.0004713991945016423 8.895535830765569e-19)
(0.7861196461168117 0.0005178541923085004 8.807372788229046e-19)
(0.7959413343510956 0.0005689569683567357 7.522671728597151e-19)
(0.8058911770158756 0.0006251739228380652 7.044658510196664e-19)
(0.8159762558159765 0.0006870161058419725 7.331496368856012e-19)
(0.8262034243204238 0.0007550436733830215 8.277919197519866e-19)
(0.8365809677934835 0.0008298578086703896 1.09954553278785e-18)
(0.8471205427650296 0.0009120925311195728 1.153651153006021e-18)
(0.8578393391763142 0.00100236536082793 9.341281068716394e-19)
(0.8687612556689858 0.001101225134620368 1.100117901127118e-18)
(0.8799130966342393 0.001209114583896794 9.078741607630125e-19)
(0.8913069230942091 0.001326457069905415 3.05603446984143e-19)
(0.9028935574532378 0.001453010244060597 -5.69922373461056e-19)
(0.914574145769495 0.001587997450578313 -1.689385527286977e-18)
(0.9262190358942507 0.001729866065640959 -3.053688626049976e-18)
(0.9376795119302193 0.001876637532496571 -4.468801230345344e-18)
(0.94877302502795 0.002026078734472707 -6.249959016508771e-18)
(0.9592760607299832 0.002176008178410846 -7.368308102962853e-18)
(0.9689527621978151 0.002322430212662811 -7.822730926189415e-18)
(0.9778706097302929 0.002460206875010972 -1.11763106479151e-17)
(0.9862033885504871 0.002592661205924253 -1.24309365041025e-17)
(0.9937807147839438 0.00270685425195169 -9.70759149679952e-18)
(1.000221643574583 0.002795481992865382 2.954684919182715e-18)
(1.005048494603493 0.002890283628763045 1.672371122099102e-17)
(1.007911076432356 0.002935801139061595 1.18837189122185e-17)
(1.009033023347687 0.002936105477252006 -1.159830675715734e-17)
(1.009095698403203 0.002860496164585895 -2.602086108725033e-18)
(1.008551767030199 0.002915246221440005 2.889770869719261e-17)
(1.008631396178884 0.002865740998847583 -3.110207915439178e-17)
(1.008602753102558 0.002838050533609229 -2.610406335173519e-17)
(1.008526660693651 0.002810884334554326 -9.253036738211554e-20)
(1.008456083657254 0.002782357614106503 1.351910305608452e-17)
(1.008380746469792 0.002750076334941832 4.048436923849414e-17)
(1.008298955261646 0.002714620038698436 1.438424252141398e-17)
(1.008211750320732 0.002676498081309613 -4.66092919543196e-17)
(1.008118302530513 0.002635226124600212 1.990961820766454e-17)
(1.008018458689163 0.00259046928653626 -2.344763439716126e-17)
(1.007911985107884 0.002542017327664053 7.414337106279496e-18)
(1.007798603865156 0.002489592799320884 5.12732780564119e-17)
(1.007678049525306 0.002432884105529083 2.240692286862926e-17)
(1.00755015891445 0.00237155637084821 1.218815705465583e-16)
(1.007414798712869 0.002305094719199031 1.77090191011572e-16)
(1.007271911722552 0.002233649136112309 2.518198092459104e-16)
(1.007121410109214 0.002155631284552535 3.815086854283531e-16)
(1.006963450960652 0.002070565699023526 4.057327295105166e-16)
(1.006798462080623 0.001980778192125926 3.936858103326079e-16)
(1.006625962357053 0.001883305099845795 3.766683068088023e-16)
(1.006446661881769 0.001777590484068478 3.147640113587277e-16)
(1.006261534461423 0.001663915739371805 1.576539959532274e-16)
(1.006071875892818 0.001540565808850325 1.466909027074386e-16)
(1.005879567042872 0.001406488662779838 -5.324754752451787e-18)
(1.005686421608843 0.00126265555321725 1.673547681022365e-18)
(1.005492417824962 0.001105243646997438 -8.508962595329101e-17)
(1.0053032100683 0.0009314647548132973 -4.900322907438455e-18)
(1.005132600244644 0.0007439660173902416 1.63278252129681e-17)
(1.004986360847803 0.0005411141162147508 2.615893545187037e-16)
(1.004871885437932 0.0003184224351656974 3.315509358463518e-16)
(1.004799698772142 7.49646604754274e-05 3.77107222979021e-16)
(1.004780952017997 -0.0001947087937918183 4.243877969397395e-16)
(1.004826704556688 -0.0004848475776971245 3.366982409051991e-16)
(1.004961360969262 -0.0007712030690895314 1.85068262217495e-16)
(1.005080567221027 -0.001079808275447623 1.230899147678931e-16)
(0.9843438653956957 -0.001977567874908107 2.000791197330812e-17)
(0.0172547892964016 9.269311896372257e-09 3.022110838716425e-19)
(0.0518876843877616 1.539502533854888e-07 8.790637938054986e-19)
(0.08688590443969095 4.533033054903696e-07 1.431423999287353e-18)
(0.1224498711964573 9.192311425582441e-07 1.989883404290676e-18)
(0.1586357897773136 1.559757287150564e-06 2.554933433131218e-18)
(0.1951703257015557 2.385348324772129e-06 3.161879491986094e-18)
(0.2312610330908259 3.398575240026584e-06 3.703898832014809e-18)
(0.2656610031642945 4.584521780896048e-06 4.227755912316754e-18)
(0.2971883215039187 5.914060580745236e-06 4.685968057668876e-18)
(0.3252868446057391 7.353922496502023e-06 5.098960733069933e-18)
(0.3502503794504824 8.902164775392643e-06 5.470951168918172e-18)
(0.3726987026835566 1.056771378435207e-05 5.802202563500615e-18)
(0.3930615851712346 1.236263848032514e-05 6.098841750928215e-18)
(0.4116286853749929 1.429174963955233e-05 6.361265359103836e-18)
(0.4286564172082365 1.63657103129487e-05 6.597392817895139e-18)
(0.444374685779848 1.859817051068884e-05 6.799454852779976e-18)
(0.4589848192920893 2.100500569728245e-05 6.982765012809911e-18)
(0.4726593886601147 2.360427710057913e-05 7.150790245013665e-18)
(0.485544083845161 2.641628343169115e-05 7.310296737510674e-18)
(0.4977608730660335 2.946370109877669e-05 7.459965427469267e-18)
(0.5094121540453055 3.277181412265235e-05 7.62310014969558e-18)
(0.5205862618010745 3.636820722468113e-05 7.75428912385473e-18)
(0.5313653636157115 4.028058942809267e-05 7.884794947530568e-18)
(0.541837476236837 4.453840663840851e-05 8.011503516418765e-18)
(0.5520903158723715 4.918051569921289e-05 8.120495905568399e-18)
(0.5621772208031399 5.424198535051777e-05 8.240416332687523e-18)
(0.572122462928505 5.975924963329991e-05 8.375642625119773e-18)
(0.5819469776033454 6.577774660745772e-05 8.497657248373035e-18)
(0.5916689269053459 7.234564367222637e-05 8.597034859460601e-18)
(0.6013041650789825 7.951480987474181e-05 8.709142858952568e-18)
(0.6108666233933455 8.734167630005643e-05 8.821814817090114e-18)
(0.6203686288991291 9.588768650853785e-05 8.925145388041742e-18)
(0.6298211690161134 0.0001052196873995163 8.950163807352797e-18)
(0.6392341116277009 0.00011541037426246 9.024596341174936e-18)
(0.6486163884732182 0.0001265387762932049 9.07660316252735e-18)
(0.6579761480483211 0.0001386907691227053 9.128189030689428e-18)
(0.6673208829217309 0.000151959611100242 9.158888188633108e-18)
(0.6766575352937353 0.000166446501762595 9.153601616914293e-18)
(0.6859925836922419 0.0001822611671495382 9.11762290568321e-18)
(0.6953321129129417 0.000199522484210213 9.050196169024302e-18)
(0.7046818689401546 0.0002183590718842132 8.928962372839366e-18)
(0.7140473015901446 0.0002389094823200683 8.793247953858365e-18)
(0.7234335988945716 0.0002613218324852827 8.628655634821922e-18)
(0.7328457163263389 0.0002857593966223783 8.440562677692155e-18)
(0.7422883870734833 0.0003124095563767891 8.40583070508272e-18)
(0.7517660993651799 0.0003414919491985772 8.382940554837134e-18)
(0.7612830699529595 0.0003732666646022014 8.4491311222134e-18)
(0.7708432431612794 0.0004080351733208249 8.479128130332325e-18)
(0.7804503138655623 0.0004461469759809389 8.649071965418306e-18)
(0.7901077753777181 0.0004879843376217855 8.402516140464631e-18)
(0.7998280482186887 0.0005339480974932443 8.173426188041781e-18)
(0.8096498681948894 0.0005845535053659831 7.952864573444255e-18)
(0.819621417602421 0.0006404038950502918 7.705832744067777e-18)
(0.8297769218755966 0.0007021369489129066 7.425365235303681e-18)
(0.8401412609169738 0.0007705316833851997 7.172165403510636e-18)
(0.8507324570879053 0.0008465315367410544 6.63903703007026e-18)
(0.861562418963682 0.0009311732372677376 6.503194425064266e-18)
(0.872637539006004 0.001025515351032806 6.821359838634364e-18)
(0.8839607306964662 0.001130431476519275 6.987478468169433e-18)
(0.8955336682725631 0.001246490061538708 7.2197356500983e-18)
(0.9073541351881339 0.001373872299076493 7.593989113762553e-18)
(0.9193958383332012 0.001512319758835039 7.43825384978517e-18)
(0.9315481712433913 0.001660388172398933 6.845212620991635e-18)
(0.9436136889203246 0.001815314532518438 5.264987065945305e-18)
(0.955330724817316 0.001973932501447021 4.19395142315849e-18)
(0.966427171195437 0.002131049957004397 4.001938792561963e-18)
(0.9767386554838505 0.002281685547497375 7.579503015984033e-18)
(0.9863276414889985 0.002422669871496928 1.154692324891595e-17)
(0.9950274862018849 0.002553229757581805 2.132972033495438e-17)
(1.002198843841243 0.002656777595892328 2.469519451198976e-17)
(1.007219135218823 0.002724368394672463 1.132037936505448e-17)
(1.009579464290686 0.002758988604254747 1.689539322141372e-17)
(1.010209950127342 0.00272898877833947 9.073011983140281e-18)
(1.009841697223816 0.002734284349212234 -3.704152597905965e-17)
(1.009789400476096 0.002697124574061324 -1.740880383797663e-17)
(1.00972613749343 0.00267358111189965 -8.645698934975255e-18)
(1.009650742030439 0.002647944598906157 3.084766523290387e-17)
(1.009572655515239 0.002618019565727451 6.094790535193951e-17)
(1.009489752324731 0.002585691027875933 4.845202182935029e-17)
(1.009401239118351 0.00255068654420099 -5.184160834136187e-17)
(1.009307149037644 0.002512350800909747 1.099175095416673e-17)
(1.009207062191485 0.0024704744146151 -3.081146760602767e-17)
(1.009100814371741 0.002424805139992956 -1.302319581609914e-17)
(1.008988297877142 0.002374993027085235 -3.288714825017233e-17)
(1.008869456207788 0.002320682666098173 -1.081931185746688e-16)
(1.008744224603645 0.002261551351073881 -5.519941461137671e-17)
(1.008612619384481 0.002196964824216705 -8.281386474877321e-17)
(1.00847479643703 0.002127075452063494 -7.106363504993615e-17)
(1.008330803137239 0.002050896677497291 -1.917366351723013e-17)
(1.008180890449966 0.001967322367674452 -9.467331425123918e-17)
(1.00802587173752 0.001877883721182789 -1.875613932130251e-16)
(1.007865440359045 0.001780109696872789 -2.860373500191485e-16)
(1.007700480639721 0.001673993863428197 -3.783718869314287e-16)
(1.007531935864522 0.001559529920588819 -5.873536269743137e-16)
(1.007360910146375 0.001435407374845295 -5.882564659155077e-16)
(1.007189020872424 0.001300431402431889 -7.265914598113766e-16)
(1.007017812561433 0.001155613499482232 -6.327649694132985e-16)
(1.006852279622234 0.0009985596301440697 -6.238002755434778e-16)
(1.006700778924687 0.0008262992103420401 -4.058435790229245e-16)
(1.006566012578014 0.0006407649735358178 -2.258867315679973e-16)
(1.006451316423309 0.0004393690115637889 1.396594147673853e-16)
(1.00636311976292 0.0002191855785753696 3.530119804560707e-16)
(1.006308597648738 -1.8800069982407e-05 5.549882664069679e-16)
(1.006298965032092 -0.0002809069967377026 6.045405818680412e-16)
(1.006349734948065 -0.000581536038621611 4.412067572725314e-16)
(1.006463832600931 -0.0008835227638720844 2.565127502733828e-16)
(1.006375089443776 -0.0007397053842992486 1.641695799600572e-16)
(0.9792363753188957 -0.00284755036947093 -1.164332252306182e-17)
(0.01609113871065886 8.364246450756819e-09 1.982068227994781e-19)
(0.04838826787142032 1.389221718616655e-07 5.96040248220524e-19)
(0.08102737501251123 4.090820649817015e-07 9.980654317185946e-19)
(0.1142047659272165 8.296439688173377e-07 1.406653995815246e-18)
(0.1480081453309619 1.408074106045178e-06 1.822816966456053e-18)
(0.1822718200325902 2.154665814768993e-06 2.244421115006219e-18)
(0.2164100834290978 3.073925538777949e-06 2.664136191479477e-18)
(0.2494017012006325 4.154993768588481e-06 3.069289855368748e-18)
(0.2801314195286643 5.371362816299269e-06 3.446099818855387e-18)
(0.3079029144680107 6.692161896843021e-06 3.786010657262743e-18)
(0.3326861707158755 8.102780427666571e-06 4.088700387539275e-18)
(0.3549946599495134 9.607174536545925e-06 4.360543943276994e-18)
(0.375303333687558 1.121800244247154e-05 4.607497030146614e-18)
(0.3938730394380375 1.293491146451152e-05 4.832746190470303e-18)
(0.4109331372153975 1.476433312626964e-05 5.039103437621155e-18)
(0.4266950109433211 1.67156022528539e-05 5.228565337386142e-18)
(0.4413484393793587 1.879991375029797e-05 5.40192258636588e-18)
(0.4550591905565387 2.103026334399802e-05 5.58874176294073e-18)
(0.4679691532390446 2.34214545364418e-05 5.761513514564112e-18)
(0.480198350616575 2.599016154983495e-05 5.923186336152974e-18)
(0.4918485414982394 2.875504880374575e-05 6.076065382950181e-18)
(0.5030088624770603 3.173628072430994e-05 6.215521236173958e-18)