# p  FACE_DATA 408
# x  y  z  p
-6.199677128280001 -8.577754919203243e-57 0.05000000000000001 0.06247852667062381
-5.841766953645002 -7.968273515976106e-57 0.05 0.05449260309292184
-5.524972915020285 -1.070951302143567e-56 0.05 0.05269764423361522
-5.241612003290451 -1.411270034874486e-56 0.05000000000000001 0.05148351904472291
-4.985767548250165 -1.828040325423532e-56 0.05000000000000001 0.05018953088903497
-4.752805322735 -2.332480488138252e-56 0.05 0.04891741882597041
-4.53904025346 -2.936892771555921e-56 0.05 0.04782012014048589
-4.341501680235001 4.215654338487575e-35 0.05000000000000004 0.04683084061049001
-4.157764707255001 4.215654338487561e-35 0.04999999999999996 0.04594376061191355
-3.985826857730004 -5.492957358403195e-56 0.05000000000000001 0.04511879528756344
-3.824016391920141 -6.648661956872259e-56 0.05 0.04436962526380255
-3.670923143810136 -8.32032982823159e-56 0.05 0.04366018025747045
-3.525345624424999 -1.024650162296886e-55 0.05 0.0430031985090254
-3.386250040705 -1.212822417954441e-55 0.05 0.0423647283913664
-3.252738151660002 -1.428786124540836e-55 0.05000000000000001 0.04175804265382325
-3.124021750625016 -1.676450201834623e-55 0.05 0.04117317081916261
-2.999402162035014 5.930169544680233e-38 0.05 0.04060479903046407
-2.87825356182 5.930169544680218e-38 0.05 0.04004543257620567
-2.760009228985 -2.661539284960328e-55 0.05000000000000001 0.0395046911946815
-2.644150050030001 -3.094045061155036e-55 0.05 0.03895770145318268
-2.530194752494999 8.357589008780982e-34 0.05 0.03840272234778329
-2.417691456119998 8.357589008780971e-34 0.05 0.03782886278554533
-2.306210211524999 -4.859919341828704e-55 0.05000000000000001 0.03724110112693284
-2.195336254565095 1.458873116088019e-30 0.05 0.03662381907987174
-2.084511222945094 1.458873116088015e-30 0.05000000000000007 0.03597362275792779
-1.973238572265007 -7.769632198250963e-55 0.04999999999999993 0.03528327259764501
-1.861714088967181 -9.25302424447215e-55 0.05 0.03455473078858046
-1.750613447127173 -1.118057251741892e-54 0.05 0.03379328517962858
-1.640602116375 -1.37007857825533e-54 0.05 0.03301190348462854
-1.532319604890005 -1.701609376323733e-54 0.05 0.03222301156163861
-1.426365001275005 -2.140246887630673e-54 0.05 0.03146216531345314
-1.32328448682 -2.723555487274527e-54 0.05000000000000001 0.03074769155706697
-1.223561328165 1.475590245551133e-36 0.05000000000000001 0.03011897557849719
-1.127608667491332 1.475590245551134e-36 0.05000000000000001 0.02961102957828348
-1.035765224728332 -5.106513105462438e-54 0.05 0.02927868276234345
-0.9482938351390037 -7.104809631440642e-54 0.05 0.02917515014763358
-0.8653825831470039 -1.007241518148741e-53 0.05 0.02936467871393138
-0.7871481707279998 -9.637365887845059e-54 0.05 0.02991276366314349
-0.7136410814689997 -7.980107983555477e-54 0.05 0.03089131883555094
-0.6448520682064998 -1.013083089103637e-53 0.05 0.03237748567931364
-0.5807194980084972 -1.471787092213599e-53 0.05000000000000001 0.0344410551344579
-0.5211371248554846 -2.118400357697621e-53 0.05 0.03714557374057551
-0.465961917895487 -2.975388676104578e-53 0.05 0.0405420589245057
-0.4150216425154998 -4.253142085935474e-53 0.05 0.04466751241601091
-0.3681219644690001 -6.216981208006538e-53 0.05 0.04954339620766439
-0.3250529175284996 2.443100816820801e-38 0.05 0.05517330997188859
-0.2855946382159995 2.443100816820796e-38 0.05000000000000001 0.06154727628962411
-0.249522324506919 -2.526579174253899e-52 0.05000000000000001 0.06864428876146363
-0.2166104180106842 -4.251482380364288e-52 0.05 0.07643569390709361
-0.1866360409302731 -7.366223867747303e-52 0.05 0.08487388109055932
-0.1593817414311726 -1.339313475630075e-51 0.05 0.09392277291429359
-0.1346376148215588 -1.506197543858409e-51 0.05000000000000001 0.103503759345587
-0.1122028748438646 -1.776421742593309e-51 0.05 0.1136084107756762
-0.09188695127801233 4.76095221175543e-32 0.05000000000000001 0.1240611057149605
-0.07351018789464027 5.563794213494871e-32 0.05000000000000001 0.1349976162482746
-0.05690421013014786 8.028420017394399e-33 0.05 0.1458706828799481
-0.04191202556414967 1.088774660985805e-50 0.05000000000000002 0.1574176689913864
-0.02838791317684984 1.127558290299426e-49 0.05000000000000001 0.167615362380257
-0.01619715001894997 1.070209418792727e-48 0.05 0.1797940528246579
-0.005215616759269629 3.426928569813506e-47 0.05000000000000001 0.1859400251869251
0.004984628236202001 0.000650124296505 0.05000000000000002 0.2016265917703009
0.01498983499534564 0.002474000165089999 0.05 0.1988064719526252
0.02495961609617413 0.005356219880115 0.05000000000000002 0.2027651559950749
0.0348083070480501 0.009235386083779999 0.05 0.197233868292055
0.04451026872340021 0.0139465669205 0.05 0.1893963953387221
0.05409340052950008 0.0192992444897 0.05 0.1740832271323629
0.06362293376495012 0.0251032013764 0.05000000000000001 0.1517550005776984
0.07318440262449996 0.03117835265225 0.05000000000000001 0.1209676952034245
0.08286925816765146 0.03735584250210001 0.05000000000000002 0.08203972090012852
0.09276689976555458 0.04347115580925 0.05 0.03658182822574653
0.1029647109755111 0.04934604078015001 0.04999999999999995 -0.01197736694335332
0.1135058636510277 0.05485286916295001 0.04999999999999999 -0.05192561515931873
0.1243531860560656 0.05999909950715001 0.05 -0.08173333773703731
0.1354410927001475 0.06485786772810001 0.05000000000000009 -0.1084434477586246
0.1467171751648116 0.06949258762765 0.05000000000000001 -0.1332004657605395
0.1581428065561265 0.07394550128175004 0.05 -0.1597786689869746
0.1697056945162064 0.07819497429705002 0.05000000000000001 -0.1905567046928527
0.1814045373237353 0.08218582275149999 0.05 -0.2160046296070611
0.1932218094930018 0.08590334886954999 0.05 -0.2352749330485953
0.205129660987941 0.08936458319704998 0.05000000000000006 -0.2516219626370885
0.2171017000071913 0.09258683191969999 0.04999999999999994 -0.265283159885108
0.2291130858191709 0.09558732069845002 0.05 -0.2763135878182024
0.241139509938364 0.0983867553505 0.05000000000000001 -0.2855056691502882
0.2531581926235 0.1010051694165 0.05 -0.2938071461322651
0.265148650843 0.103457597716 0.05 -0.3015382714153003
0.2770922138729998 0.1057550010535 0.05 -0.3086856010484491
0.2889713127765 0.107907001951 0.05000000000000001 -0.3152835642001611
0.3007691609084999 0.1099234323915 0.05000000000000001 -0.32151874604857
0.3124699004924995 0.1118134923955 0.04999999999999993 -0.3277914696498661
0.3240589922324997 0.1135831474615 0.05000000000000087 -0.334297374170894
0.3355231955479997 0.1152347288385 0.0499999999999992 -0.3408392794594848
0.3468501498114998 0.1167693493625 0.05 -0.347143043219218
0.3580280966729998 0.1181889197785 0.05 -0.3531253060761239
0.3690459216129997 0.1194961773735 0.05000000000000001 -0.3588248892902784
0.3798932709134997 0.1206940507785 0.05 -0.3642536976897061
0.3905605893499996 0.121785482892 0.05000000000000001 -0.3693683028167098
0.401039070388 0.1227740654205 0.0500000000000001 -0.37409038860187
0.4113206900105003 0.123663832921 0.04999999999999992 -0.3785920967764539
0.421398269641 0.12445864703 0.05 -0.3828251296675608
0.4312654779225 0.125161944243 0.05 -0.3869189698512885
0.4409167982214999 0.125776943995 0.05 -0.3906460026107521
0.4503474432275 0.126307764631 0.05 -0.3940290426011167
0.4595533833380002 0.1267588021975 0.05000000000000001 -0.3972938822980622
0.4685314297430002 0.1271324418885 0.05000000000000002 -0.400582081491016
0.4772791175665002 0.1274304966415 0.05000000000000001 -0.4031852916490979
0.4857945533219998 0.1276578823225 0.05 -0.4050519598447141
0.4940764914679997 0.1278211196335 0.05000000000000001 -0.4069386856051941
0.5021243971944995 0.1279249585275 0.05 -0.4089117091932657
0.5099383701799997 0.1279722348825 0.05 -0.4107966097659034
0.5175190604874998 0.127965412792 0.05 -0.4123686293296692
0.5248676350579998 0.127908039663 0.05 -0.4135265583343333
0.5319857691329999 0.12780482143 0.05 -0.4145178535523074
0.5388755937885 0.1276595276705 0.05 -0.4157037256390079
0.5455396051649996 0.1274736281615 0.05 -0.4168959792816988
0.5519806574639996 0.1272485901065 0.05 -0.4174915811660161
0.5582020304095 0.126988439036 0.05000000000000001 -0.41756586584175
0.5642073631170005 0.1266978713965 0.05 -0.4178814746946042
0.5700004493935004 0.1263787059575 0.05 -0.418584716545266
0.5755851758355004 0.1260304212725 0.05000000000000001 -0.4190458340828872
0.5809656761405015 0.125653739803 0.05 -0.419184622438902
0.5861464210650026 0.1252518265205 0.05000000000000001 -0.4187369402247946
0.5911321036110015 0.12482840891 0.05 -0.4164162156568468
0.5959275198010001 0.1243864974475 0.05 -0.4136650338742943
0.600537529617 0.123928422739 0.05 -0.4120769788321339
0.6049670489815003 0.1234561363475 0.0499999999999998 -0.4105605007966387
0.6092210724855002 0.122971670584 0.05000000000000022 -0.4087119193615127
0.6133046228305001 0.122476867682 0.05 -0.4069115063811448
0.6172226775465003 0.12197296688 0.05 -0.4052581803544958
0.6209800302029999 0.121459852469 0.05 -0.4042445424082016
0.62458133592 0.12093669611 0.05 -0.4026736644118037
0.6280312956454999 0.1204034504175 0.05 -0.3989209072852652
0.6313347640235002 0.119861401074 0.05 -0.3934248092799361
0.6344968123680003 0.1193133306225 0.05 -0.3886195308532164
0.6375226138519999 0.1187626347535 0.05 -0.3838870319664642
0.6404172906375001 0.11821244768 0.05 -0.3797333380360637
0.6431853636155 0.117663007212 0.05 -0.3763128472227643
0.6458299100325 0.117108143391 0.04999999999999965 -0.3745572966995577
0.6483530014750001 0.116538586868 0.05000000000000036 -0.3696096644395701
0.6507565369045 0.115946749381 0.05000000000000001 -0.3647396840239206
0.6530428059585001 0.1153287743385 0.05 -0.351500036672305
0.6552411065430003 0.114664511668 0.05 -0.3449645185253168
0.657403313374 0.1139489530125 0.05 -0.313944177684642
0.6595440982245004 0.113172824724 0.05000000000000001 -0.3062359118348637
0.6616543113090004 0.1123169590505 0.05000000000000001 -0.2765740478848953
0.6637315088855003 0.1113839593165 0.05 -0.2563963968740244
0.6657702102740002 0.1103697151375 0.05 -0.2371393203963049
0.667766757488 0.1092746552405 0.05 -0.2237814588203216
0.6697226334865001 0.1081081019005 0.05 -0.2133684956638416
0.6716427213760002 0.106883191143 0.05000000000000001 -0.2055919127384684
0.6735315887085001 0.1056104175955 0.05 -0.1991685099987691
0.6753924238924999 0.1042968060795 0.05 -0.1941561228807831
0.6772280143150003 0.1029479441625 0.05 -0.1899653714415054
0.6790413578645007 0.101569121764 0.05000000000000001 -0.1865699334489117
0.6808352171090004 0.10016484892945 0.05 -0.1836336989002031
0.6826125431065 0.09873950390380001 0.04999999999999962 -0.181131575198998
0.6843763723494996 0.09729728448955002 0.05000000000000045 -0.1789191192038667
0.6861295665739999 0.09584194181709997 0.04999999999999995 -0.1769692683150456
0.6878752202565003 0.09437734204935001 0.05 -0.1752159207689237
0.6896156221749998 0.09290627960579999 0.05 -0.1736430798177944
0.6913518474884993 0.09143005320875 0.05000000000000003 -0.1721897808304732
0.6930848069234998 0.08994974418729999 0.04999999999999998 -0.1708580801492847
0.6948159685650003 0.08846706926005003 0.05000000000000001 -0.1696135922459644
0.6965479688665001 0.08698509898110003 0.05000000000000002 -0.1684689305063162
0.6982840580074997 0.0855076355043 0.05 -0.1674169079686959
0.7000263361159997 0.0840371715334 0.05000000000000001 -0.1664473514970406
0.7017748511845004 0.08257380343345001 0.05 -0.165537686690184
0.7035282252639998 0.08111591737334994 0.05 -0.1646726484447557
0.7052849101374996 0.07966166549259994 0.04999999999999998 -0.1638434654268534
0.7070436944859997 0.07820958308489996 0.04999999999999997 -0.1630474733384042
0.7088038634585 0.07675879497879999 0.05000000000000007 -0.1622670540113325
0.7105663320810001 0.07531040458100001 0.05 -0.1615267144322511
0.7123327171204995 0.07386638023865 0.05 -0.1608285711109248
0.7141040067579998 0.07242794790525001 0.04999999999999965 -0.160137303827064
0.7158820780589997 0.0709974682466 0.04999999999999972 -0.1595072665712027
0.7176684679405002 0.06957692581855 0.0499999999999996 -0.1588886588201323
0.7194640268915001 0.06816751375634997 0.05000000000000135 -0.1583040534704284
0.7212698693615002 0.06677080212205 0.05000000000000007 -0.1577514149857976
0.7230860540255001 0.06538703709055001 0.04999999999999966 -0.1572084275116158
0.7249121528170001 0.06401583513665 0.05000000000000001 -0.1566855128616113
0.7267477269805004 0.06265677472459998 0.05 -0.1561608853293659
0.7285925185100007 0.06130966710524999 0.05000000000000002 -0.155649564515919
0.7304465161280007 0.05997464959935003 0.05000000000000004 -0.1551422432717406
0.7323093458700003 0.05865135181559999 0.04999999999999993 -0.1546386474398401
0.7341809792190002 0.0573398883524 0.05000000000000002 -0.1541160229867504
0.7360624659025 0.0560419370663 0.05000000000000302 -0.1536361886799016
0.7379542475474999 0.05475833491104998 0.04999999999999703 -0.1531392928060583
0.7398563365580003 0.05348934074064997 0.04999999999999995 -0.1526491450365455
0.7417694324739998 0.05223625912550001 0.05 -0.1521787973277558
0.7436936400309997 0.05099952815289999 0.05 -0.1516957463566573
0.7456288995499998 0.04977936423650001 0.05000000000000001 -0.1512259144096044
0.74757529892 0.04857621600440001 0.05 -0.1507481807697957
0.7495328370405001 0.04739041614075001 0.05000000000000002 -0.1502717315495898
0.7515016017880004 0.04622245676085 0.05000000000000004 -0.1498009352514997
0.7534814207705 0.0450724044298 0.04999999999999997 -0.1493130314574783
0.7554723219755002 0.04394069032665001 0.05 -0.1488328851357929
0.7574743848684999 0.04282784208069999 0.05 -0.1483539595505775
0.7594872815664995 0.04173367423209999 0.05 -0.1478505597832153
0.7615110766404999 0.04065873497615003 0.05000000000000001 -0.1473591344219535
0.7635459190695002 0.03960374280455001 0.05 -0.1468675771011303
0.7655914220255003 0.0385684109312 0.05 -0.1463545578487165
0.7676473243625004 0.03755268941775 0.05 -0.1458461987145447
0.7697135837544997 0.03655696300124998 0.05 -0.1453156857142802
0.7717902952700002 0.03558193783305 0.04999999999999998 -0.144800070856758
0.7738773988725003 0.03462801223355001 0.05000000000000002 -0.1442754800905499
0.7759744457524999 0.03369474440785002 0.05 -0.143738895525334
0.7780810664150003 0.03278183889165 0.05 -0.1431917937774617
0.78019704305 0.03188932292789999 0.05 -0.1426360497277501
0.7823221505739998 0.03101719849765001 0.04999999999999964 -0.1420737816997396
0.7844560716074997 0.03016522813985002 0.05000000000000039 -0.1414991109880698
0.7865984214700001 0.02933297664485 0.04999999999999998 -0.1409133191546479
0.7887488166960002 0.02851996895799999 0.05000000000000002 -0.1403095832676217
0.7909068707960001 0.02772567395929999 0.05000000000000001 -0.1396968591741986
0.7930721921014999 0.02694949718584999 0.05 -0.1390514748403393
0.7952445708874996 0.0261913195438 0.05 -0.138403662288589
0.7974239025135 0.02545130583115001 0.05000000000000001 -0.1377390458149648
0.7996099661955 0.02472927879469999 0.05 -0.1370676396985607
0.8018025000324995 0.024024915325 0.05000000000000001 -0.1363715533077945
0.8040012958529995 0.02333803380759999 0.05 -0.1356752333299443
0.8062060857959994 0.02266822866269998 0.05 -0.1349548440628771
0.8084165625669999 0.02201493253974999 0.05000000000000001 -0.1342162110999606
0.8106324933375002 0.02137777852194999 0.05 -0.1334727347727051
0.8128535181804998 0.0207559029622 0.05 -0.1326963070384716
0.8150792454929996 0.0201482675157 0.05000000000000001 -0.1318958041293093
0.8173095056829995 0.0195545852866 0.04999999999999612 -0.1310667329718814
0.8195442795785002 0.0189751162048 0.05000000000000389 -0.130242979591046
0.8217834321310002 0.01840966975389999 0.05 -0.1293875093213751
0.8240267348000002 0.01785767121659999 0.04999999999999999 -0.1285222874834604
0.826274041879 0.0173188424891 0.05 -0.1276254668951932
0.828525262765 0.0167931131495 0.05000000000000001 -0.1267361275894668
0.8307801805914995 0.01627984063945001 0.05 -0.1258080615300396
0.8330385750609997 0.015778336125 0.05 -0.1248543550620866
0.8353003986759997 0.01528864325229999 0.05000000000000001 -0.1239111324803342
0.8375654441710002 0.01481003517775001 0.05 -0.1229187155497789
0.8398334852355001 0.0143416651224 0.05 -0.1219113548580349
0.8421044345034995 0.0138832977753 0.05000000000000001 -0.1208960243789243
0.8443780829514996 0.0134340585689 0.05 -0.119832798218528
0.8466543157384999 0.0129935213911 0.05 -0.1187611040581647
0.8489331304950004 0.01256180862455 0.05 -0.1176776166698121
0.8512143973715005 0.0121383619413 0.05 -0.1165574718843013
0.8534980640470001 0.01172302708495 0.05000000000000001 -0.1154331025274851
0.8557841323799997 0.0113159304976 0.05 -0.1142930145151918
0.8580725027609996 0.01091662627125 0.05 -0.1131286801794825
0.8603631170914997 0.0105248892373 0.05000000000000001 -0.1119530536578239
0.8626559558170003 0.010140705231595 0.05 -0.1107615944503711
0.8649509638630009 0.009763841642255 0.05 -0.1095560738855119
0.8672480749810003 0.009393981725745 0.05000000000000315 -0.108332358274184
0.8695472360589998 0.009030876001935001 0.04999999999999687 -0.1070942777654199
0.8718484026379998 0.008674312432575002 0.05 -0.1058422521857119
0.8741515097960003 0.008323930074100002 0.05 -0.1045724044213232
0.8764564866705006 0.007979311843514997 0.05 -0.1032860752036976
0.87876329261 0.007640223389389998 0.05 -0.1019818793507146
0.8810719287089996 0.007306705454425 0.05 -0.1006708055229655
0.8833823747764999 0.006978648181244999 0.05 -0.09934442543208916
0.8856945846790002 0.006655753190235001 0.05 -0.09800194426410905
0.888008559028 0.006338047922060002 0.05 -0.09665133492936216
0.8903243296705001 0.006025791010584998 0.04999999999999999 -0.09529047765339924
0.8926419295295001 0.005719262982080003 0.05 -0.093927520287031
0.894961370319 0.005418595432645 0.05 -0.09255264250271115
0.897282659628 0.005123898809525002 0.05000000000000001 -0.09117426963633966
0.8996058166475004 0.004835381589855 0.05 -0.08978822776951124
0.9019308405080003 0.004553099979725001 0.05 -0.08839766412290781
0.9042576994649999 0.004276853159515002 0.05 -0.086994107327898
0.9065863723679998 0.004006522247784995 0.05000000000000432 -0.08558129362504392
0.9089168821900002 0.003742369358659995 0.0499999999999957 -0.08416520723239744
0.9112492673494997 0.003484812123329997 0.05 -0.0827416354896931
0.9135835831659994 0.003234460843345001 0.05 -0.08132273190955774
0.9159198695309997 0.002991829606820003 0.05 -0.07989745715766577
0.9182581570539999 0.002757397545525003 0.05 -0.07847258622765384
0.9205985015379998 0.002531952698750002 0.05 -0.07705149373808942
0.9229409218954998 0.002315977488074998 0.05000000000000001 -0.07562809153660414
0.925285397132 0.002109572991655 0.05000000000000002 -0.07419888283621881
0.9276319345350003 0.00191320048961 0.05 -0.07276867360607953
0.9299805638220006 0.001727674900340001 0.04999999999999922 -0.071344467136444
0.9323312699495009 0.001553340179535 0.05000000000000079 -0.06991248264006419
0.9346840168910001 0.001390327937335001 0.05 -0.06847978075763025
0.9370387882550004 0.001239107756285 0.05 -0.06704429237168731
0.9393955675104999 0.001100259410920001 0.05 -0.06561098041674944
0.9417543090615001 0.000973952371799999 0.05 -0.06417377073793215
0.9441149373385004 0.000859816782817501 0.05000000000000001 -0.06272493139265493
0.94647739603 0.0007578350968285 0.05000000000000001 -0.06127736209846213
0.9488416360929997 0.0006680967845340002 0.05 -0.05982236826375412
0.9512075896600003 0.0005901756512729997 0.05 -0.0583622655727998
0.9535751911305002 0.0005235204025705001 0.05 -0.05689237098220683
0.9559443884610002 0.0004678319103404997 0.05000000000000001 -0.05542152447681852
0.9583151318561196 0.0004226114038649999 0.05000000000000001 -0.05394343179566415
0.9606873669357485 0.0003866365378025 0.05 -0.05245560078779175
0.9630610462049013 0.0003581136067695001 0.05 -0.05095864852850525
0.9654361321598082 0.0003345389461170001 0.05 -0.04944279895230096
0.9678126019819508 0.0003134066880180002 0.05000000000000001 -0.04792231244836333
0.9701904441083121 0.0002925642877440001 0.05000000000000002 -0.04638917018861383
0.9725696590878737 0.0002710008838004998 0.05 -0.04486754469904316
0.97495025892962 0.0002489953303805 0.05 -0.04335473844467183
0.9773322566125361 0.0002269151917819997 0.05000000000000001 -0.04185747178734594
0.9797156656471074 0.0002051839441119998 0.05 -0.04037565265254655
0.9821004936353218 0.0001835776465299998 0.05000000000000001 -0.03890523183887831
0.9844867406311666 0.0001610744221330001 0.05000000000000001 -0.03744643390132522
0.98687440358863 0.0001364675391545002 0.05000000000000001 -0.03599988824193062
0.989263474984203 0.0001084276971785002 0.05 -0.03456633385441766
0.991653963665875 7.717415161220049e-05 0.05000000000000387 -0.03315525477742112
0.9940459197696363 4.603636350785022e-05 0.04999999999999614 -0.03177684144424982
0.9964394098209793 2.012308392756466e-05 0.05000000000000001 -0.0304225477220109
0.9988344687753973 4.572696538915002e-06 0.05 -0.02909906114985909
1.001231319973381 1.713277893722924e-46 0.05 -0.02777045759979672
1.003631546222924 4.71014740573068e-48 0.05 -0.02645004196395723
1.006038885812522 1.909818757547793e-49 0.05000000000000001 -0.02513834888817519
1.008458096597166 -1.533186004180885e-49 0.05000000000000001 -0.02384344317704428
1.010893959881854 -1.424818650236337e-49 0.05 -0.02255753485637221
1.013351289881578 -1.01175723135426e-49 0.05 -0.02128377428600623
1.015834943251337 -6.780439170943724e-50 0.05000000000000001 -0.02001664372691957
1.018349828666125 -1.595102778112982e-50 0.05000000000000001 -0.01875827388399815
1.020900916525941 2.155115885897532e-50 0.05 -0.01750421406128705
1.023493248780782 2.032783599645481e-50 0.05 -0.01625537041526998
1.026131948895645 1.867288844017935e-50 0.05 -0.01500895286892021
1.028822231975526 1.687747937342393e-50 0.05000000000000273 -0.01376513346558514
1.031569415075426 1.751702936036495e-46 0.04999999999999733 -0.01252216537027788
1.034378927710341 1.751618185806736e-46 0.05000000000000587 -0.0112799116310565
1.03725632258027 9.601002419093831e-52 0.04999999999999429 -0.01003744222996156
1.04020728654521 3.808056144210983e-51 0.05 -0.00879451027955004
1.04323765186516 5.078413859528591e-51 0.05 -0.007550941570687243
1.046353407735122 5.508708646026131e-51 0.05 -0.006306439944926157
1.04956071211009 5.49247622124108e-51 0.05 -0.005061668757544505
1.052865903880065 5.245056069998843e-51 0.05 -0.003816225687506439
1.056275515405046 4.886184077088316e-51 0.05000000000000001 -0.002571849888364888
1.059796285415032 4.482871811854074e-51 0.05 -0.001327856092986997
1.063435172330021 1.026355125039862e-31 0.05 -8.744191972712636e-05
1.067199368020014 1.026355125039862e-31 0.05 0.001150610165167135
1.071096312010009 3.458035076278019e-51 0.05 0.00238134683537927
1.075133706190005 3.109075150020793e-51 0.05 0.003606468892476826
1.079319530045002 2.785541642460659e-51 0.05 0.004819850278749397
1.0836620564 2.488810771379511e-51 0.05000000000000002 0.006021947290575622
1.088169867785 2.168636074261193e-51 0.05 0.007209811995382132
1.092851873409999 3.52717098301761e-33 0.05 0.008381062836032033
1.097717326755 8.938373772881003e-33 0.05000000000000001 0.009530617788563038
1.10277584386 5.411202789863314e-33 0.05 0.0106582496596578
1.108037422345 1.345467124793955e-51 0.05 0.0117542613970368
1.11351246116 1.197173945412002e-51 0.05000000000000001 0.01282262764931894
1.11921178112 1.06245461460521e-51 0.05000000000000001 0.01384682947599101
1.12514664632201 9.40785848932076e-52 0.05000000000000001 0.01483720017282156
1.13132878638782 8.307909757443569e-52 0.05 0.01576724982818768
1.137770419650809 7.342987927661395e-52 0.05000000000000001 0.01665666561966837
1.14448427731 6.485962954486043e-52 0.05 0.01746705824406789
1.151483628575 6.198236980575129e-52 0.05 0.01822848228136582
1.158782306915 2.397423772645625e-33 0.05000000000000001 0.01890283014376969
1.166394737385 2.397423772645671e-33 0.05 0.01951348124559209
1.174335965135 4.392707811171305e-52 0.05 0.02002818290107892
1.182621685145002 3.782995412539338e-52 0.05000000000000001 0.02046768305913847
1.191268273245009 3.255635294359152e-52 0.05 0.02080241210059237
1.200292818495028 2.778105942420151e-52 0.05 0.02105690948050043
1.209713156935082 2.363346780300277e-52 0.05 0.02119880278300201
1.219547906845211 3.611117575083784e-35 0.05 0.02126264172096691
1.229816505550511 3.611117575083758e-35 0.05000000000000001 0.021215603079841
1.240539247836177 1.434622924894772e-52 0.05000000000000068 0.02110034193885771
1.251737326052595 1.245620827836877e-52 0.04999999999999935 0.02087802983282718
1.263432871990509 1.084249197489743e-52 0.05 0.02060582857004648
1.275649000646318 2.807774380890099e-28 0.05000000000000001 0.0202516295554039
1.288409855882596 2.807774380890099e-28 0.05 0.01984447435463566
1.301740658125009 9.304566637130685e-53 0.05000000000000001 0.01936832131641228
1.31566775429 8.002995739617768e-53 0.05 0.01890429926735575
1.33021866981 6.868835886008779e-53 0.05 0.01830120963458599
1.345422162985 5.876038538676561e-53 0.05 0.01777607300200575
1.36130828188 5.002092042760697e-53 0.05000000000000001 0.01718404228274501
1.377908423704999 4.252635168413535e-53 0.05 0.0165413540963383
1.39525539685 3.614765619358636e-53 0.05000000000000001 0.0158878702924385
1.413383485745 1.149968657900998e-34 0.05 0.01523827943055036
1.43232851861 1.149968657901002e-34 0.05 0.01457689593858332
1.452127938255 2.222031180262944e-53 0.05000000000000002 0.01394040540520111
1.47282087611 1.993834466809138e-53 0.05 0.01334887711706259
1.494448229535 1.814156341483321e-53 0.05 0.01264292395230101
1.51705274267 1.549335743554116e-53 0.05000000000000001 0.01206708187501242
1.54067909091 1.316014439447382e-53 0.05 0.01143218402206166
1.565373969180001 1.108983608442002e-53 0.05000000000000001 0.01093845213668822
1.591186184255002 9.312184053373708e-54 0.05 0.01041201788838427
1.618166751205006 5.165378468270925e-32 0.05 0.009999017973087658
1.646368994210014 5.165378468270939e-32 0.05 0.009575672860204582
1.675848651970038 5.380185451100474e-54 0.05 0.009267867639130501
1.706663987855099 4.438595256481931e-54 0.05 0.008893705035818399
1.738875905065253 2.81123329295356e-54 0.05 0.008675590807360025
1.772548066995234 2.138300215871291e-54 0.05 0.008595499209980541
1.807747023045076 2.402454796259125e-54 0.05 0.00838031137209062
1.844542340160032 1.951734793893905e-54 0.05 0.008363585996909525
1.883006740330011 1.578730977578324e-54 0.05000000000000001 0.008333282051574971
1.923216244305002 1.979498002460015e-54 0.05000000000000001 0.008333895687211136
1.96525032184 2.347258088667947e-54 0.05 0.00831644790533911
2.009192048765 1.95223028206651e-54 0.05 0.008288423083591175
2.05512827118 1.616762757166766e-54 0.05000000000000001 0.008227241573264168
2.10314977709 1.33285729611865e-54 0.05 0.008116410023700608
2.153351475825 1.099875414825353e-54 0.05 0.00794779078439074
2.205832585645 9.037390889561793e-55 0.05 0.007692380341285631
2.260696829834219 7.328630128314294e-55 0.05 0.007344919963800304
2.318052641644438 5.905667988737859e-55 0.05000000000000001 0.006873342483248081
2.378013378665219 4.725727475161952e-55 0.05000000000000001 0.006267726202251751
2.440697546860001 3.754832403928032e-55 0.05 0.005505349059877174
2.506229034735215 2.975384465411304e-55 0.05 0.004570125674254797
2.574737358248837 2.334335319098854e-55 0.05 0.003471186179472798
2.646357916688622 1.794494063956887e-55 0.05000000000000001 0.002142556219784239
2.721232260385 1.358643177627478e-55 0.05 0.00070443474855898
2.799508370464999 1.009093478066252e-55 0.05000000000000001 -0.0009663977775260906
2.881340951215 7.308475810680639e-56 0.05000000000000001 -0.002584970493229991
2.966891735925 5.1123708823524e-56 0.05000000000000001 -0.004393653540066187
3.056329806515254 3.3960160211189e-56 0.05 -0.005853187406623521
3.149831927715255 1.141447058086526e-37 0.05 -0.00762469202813959
3.247582896405107 1.141447058086526e-37 0.05 -0.008073869975141193
3.349775906860107 -9.077071770028519e-59 0.05000000000000001 -0.009559487708648132
3.456612932570001 -2.502187351878371e-57 0.05 -0.006257295931946509
3.568305125420001 -6.437347249758809e-57 0.05000000000000001 -0.00523429600305772
3.685073233015002 -9.115829641902377e-57 0.05000000000000001 0.002364894614004362
3.80714803496349 -1.081964382949727e-56 0.05000000000000001 -0.001100796295322889
3.93477079895849 -1.809969222602525e-56 0.05000000000000001 0.007637909841467634
