# p  FACE_DATA 408
# x  y  z  p
-6.19967712828 -3.361165615909046e-56 0.05 0.05702894426210191
-5.841766953645001 -3.064060266306597e-56 0.05 0.05058928660370559
-5.524972915015189 -4.057063671901974e-56 0.05000000000000001 0.04945140801022633
-5.2416120032853 -5.270648355998586e-56 0.05000000000000001 0.04859496801153471
-4.98576754825011 -6.734627474869631e-56 0.05 0.04765560126650818
-4.752805322734998 -8.48098052124422e-56 0.05 0.04690173229527195
-4.53904025346 -1.054413990796901e-55 0.05 0.04616239961239069
-4.341501680235 5.345435450401165e-51 0.05000000000000008 0.04542341110469162
-4.157764707255001 5.345407331063559e-51 0.04999999999999992 0.04469945067848066
-3.985826857730003 -1.902456868663638e-55 0.05 0.0439944214003304
-3.824016391920094 -2.276463940525773e-55 0.05000000000000001 0.04328344411760637
-3.670923143810091 -2.72554625226817e-55 0.05 0.04263275639198425
-3.525345624424999 -1.487376359420705e-55 0.05 0.04202663283402536
-3.386250040705 -2.050239582265045e-55 0.05 0.04144188410545101
-3.252738151660001 -4.440562376600949e-55 0.05 0.04087198374081669
-3.124021750625011 -5.166645278230914e-55 0.05000000000000001 0.04035174307558767
-2.99940216203501 3.95348223636083e-38 0.05000000000000001 0.03988465520676835
-2.87825356182 3.95348223636083e-38 0.05 0.0394368390275872
-2.760009228985 -7.993274538949348e-55 0.05000000000000001 0.03901757237947381
-2.644150050030001 -9.209614069766438e-55 0.05 0.03862648709930838
-2.530194752494999 5.517642884425775e-34 0.05 0.03823132171285773
-2.417691456119999 5.517642884425783e-34 0.05000000000000001 0.03780437388958538
-2.306210211524999 -1.080109805482868e-54 0.05000000000000001 0.03735504857809856
-2.195336254565064 -1.62177845748592e-54 0.05000000000000001 0.0369092191867912
-2.084511222945063 -1.873572452129279e-54 0.05000000000000007 0.0363457374498484
-1.973238572265005 -2.178984314700985e-54 0.04999999999999994 0.03560477873985728
-1.861714088966454 -2.565668240735108e-54 0.05 0.0347987803453426
-1.750613447126449 -3.063885640889165e-54 0.05000000000000001 0.03395080568289489
-1.640602116375 -3.70942873424239e-54 0.05 0.03298319612461061
-1.532319604890003 -4.550663459582344e-54 0.05 0.03195299750926108
-1.426365001275003 -5.652973178567157e-54 0.05 0.03095925701117204
-1.32328448682 -7.104640812871792e-54 0.05000000000000001 0.03011480890907844
-1.223561328165 9.837268723130383e-37 0.05000000000000001 0.02942785380000952
-1.127608667490888 9.837268723130392e-37 0.05 0.02882836134751693
-1.035765224727888 -1.382380184524419e-53 0.05 0.02840515818255274
-0.9482938351403357 -1.873315759475793e-53 0.05 0.02830507088651058
-0.8653825831483359 -2.578461181873004e-53 0.05 0.02860543051217975
-0.7871481707279998 -3.004220457695185e-53 0.05 0.02933895491736917
-0.7136410814689997 -3.476271088352096e-53 0.05 0.03056816754119204
-0.6448520682064998 -4.696156988274761e-53 0.05 0.03239931578349595
-0.5807194980084982 -6.39245450996665e-53 0.05 0.03487162620971274
-0.5211371248554897 -8.862241363639601e-53 0.05000000000000001 0.03805364402850473
-0.4659619178954911 -1.262510124088351e-52 0.05000000000000001 0.04199620537500205
-0.4150216425154998 -1.81467156405946e-52 0.05 0.04675138302405425
-0.3681219644690001 -2.633495734151602e-52 0.05 0.05233833231655304
-0.3250529175284996 1.221550655058165e-38 0.05 0.05876394494381717
-0.2855946382159995 1.221550655058147e-38 0.05000000000000001 0.06603547843183236
-0.2495223245092792 -8.767199454960599e-52 0.04999999999999979 0.07413472117781508
-0.2166104180139561 -1.346000988870899e-51 0.05000000000000024 0.08303892681616241
-0.1866360409315156 -2.106662421698284e-51 0.05 0.09271527468488837
-0.1593817414316151 -3.394149360558149e-51 0.05 0.1031310470389471
-0.1346376148217056 -4.863215376091948e-51 0.05 0.1142241460152989
-0.1122028748439096 -6.796617045379995e-51 0.05000000000000001 0.1259726255564486
-0.09188695127802476 -1.074076368111479e-50 0.05000000000000001 0.1382402963358536
-0.07351018789464334 -1.850754143634397e-50 0.05000000000000001 0.1510837766920331
-0.05690421013014833 -3.426733293357563e-50 0.05000000000000001 0.164050492170435
-0.04191202556414967 -6.036732358737736e-50 0.05000000000000002 0.177628279665663
-0.02838791317684984 -1.545490746279627e-49 0.05000000000000001 0.189899738045809
-0.01619715001894997 -6.73754950361842e-49 0.05 0.2034058690419975
-0.005215616759269629 -5.18938734696656e-48 0.05000000000000001 0.2090919291466954
0.004984628234073063 0.000650124296505 0.05 0.2251330151430156
0.01498983499302525 0.002474000165089999 0.05 0.2238333541916003
0.02495961609598268 0.005356219880114999 0.05 0.2282415114509363
0.0348083070480501 0.009235386083779999 0.05 0.2226219763214437
0.04451026872340021 0.0139465669205 0.05 0.2137667917374456
0.05409340052950008 0.0192992444897 0.05 0.1966007889786144
0.06362293376495012 0.0251032013764 0.05000000000000001 0.1713889490884546
0.07318440262449996 0.03117835265225 0.05000000000000001 0.136846386311569
0.08286925816765085 0.03735584250210001 0.05 0.09356094793402164
0.0927668997655529 0.04347115580925 0.05000000000000001 0.04346825899157195
0.1029647109755073 0.04934604078014999 0.05 -0.009599521727707843
0.1135058636510183 0.05485286916295002 0.05000000000000007 -0.05254922889121204
0.1243531860560435 0.05999909950715001 0.04999999999999995 -0.08391512547080729
0.1354410927000984 0.06485786772810001 0.05 -0.1115445075382482
0.1467171751647079 0.06949258762765001 0.04999999999999988 -0.1370634871831698
0.1581428065559176 0.07394550128175002 0.05000000000000013 -0.1643088037668611
0.1697056945158041 0.07819497429705 0.05 -0.1961624551224935
0.1814045373229903 0.08218582275150001 0.05 -0.2221480445172452
0.1932218094916681 0.08590334886955001 0.05 -0.2413403408212454
0.2051296609856273 0.08936458319704997 0.04999999999999993 -0.2573648162582536
0.2171017000032941 0.09258683191969999 0.05000000000000008 -0.2705893323695694
0.2291130858127805 0.09558732069845004 0.05000000000000001 -0.28105815214345
0.2411395099344093 0.0983867553505 0.05 -0.2896295096516653
0.2531581926235 0.1010051694165 0.05 -0.297313551438727
0.265148650843 0.103457597716 0.05 -0.3044529191227141
0.2770922138729998 0.1057550010535 0.05 -0.3110820406809464
0.2889713127765 0.107907001951 0.05000000000000001 -0.31730768538818
0.3007691609084999 0.1099234323915 0.05000000000000001 -0.3232545264277226
0.3124699004924995 0.1118134923955 0.04999999999999993 -0.3293664578957221
0.3240589922324997 0.1135831474615 0.05000000000000087 -0.3357693637831695
0.3355231955479997 0.1152347288385 0.0499999999999992 -0.3422030352246605
0.3468501498114998 0.1167693493625 0.05 -0.3484261511597757
0.3580280966729998 0.1181889197785 0.05 -0.3544116666461503
0.3690459216129997 0.1194961773735 0.05000000000000001 -0.3602226954556584
0.3798932709134997 0.1206940507785 0.05 -0.3658004803640996
0.3905605893499996 0.121785482892 0.05000000000000001 -0.3710671568664949
0.4010390703879999 0.1227740654205 0.05 -0.3759563368181361
0.4113206900105003 0.123663832921 0.05 -0.3806754251742224
0.421398269641 0.12445864703 0.05 -0.3851674760531618
0.4312654779225 0.125161944243 0.05 -0.3896297389968775
0.4409167982214999 0.125776943995 0.05 -0.393665535740026
0.4503474432275 0.126307764631 0.05 -0.396710191596241
0.4595533833380002 0.1267588021975 0.05000000000000001 -0.3994595183066955
0.4685314297430002 0.1271324418885 0.05000000000000002 -0.4028439888381672
0.4772791175665002 0.1274304966415 0.05000000000000001 -0.405992850564848
0.4857945533219998 0.1276578823225 0.05 -0.4084627551567434
0.4940764914679997 0.1278211196335 0.05000000000000001 -0.4107080867995494
0.5021243971944995 0.1279249585275 0.05 -0.4126952477243399
0.5099383701799997 0.1279722348825 0.05 -0.4144264385498963
0.5175190604874998 0.127965412792 0.05 -0.4154972315257517
0.5248676350579998 0.127908039663 0.05 -0.4159387192775529
0.5319857691329999 0.12780482143 0.05 -0.4162530574466954
0.5388755937885 0.1276595276705 0.05 -0.4169499396617336
0.5455396051649996 0.1274736281615 0.05 -0.4181549775151887
0.5519806574639996 0.1272485901065 0.05 -0.4189418141162176
0.5582020304095 0.126988439036 0.05000000000000001 -0.4190771434351544
0.5642073631170005 0.1266978713965 0.05 -0.4192725935081255
0.5700004493935004 0.1263787059575 0.05 -0.4196724283537188
0.5755851758355004 0.1260304212725 0.05000000000000001 -0.4196064828810245
0.580965676140501 0.125653739803 0.05000000000000001 -0.4184949661828192
0.5861464210650017 0.1252518265205 0.05000000000000001 -0.4167107589529603
0.5911321036110009 0.12482840891 0.05 -0.4148074393116755
0.5959275198010001 0.1243864974475 0.05 -0.412784231366893
0.6005375296170001 0.123928422739 0.05 -0.4104205705863204
0.6049670489815003 0.1234561363475 0.04999999999999979 -0.4069603985481819
0.6092210724855002 0.122971670584 0.05000000000000022 -0.4030770602619956
0.6133046228305001 0.122476867682 0.05 -0.4009683347268179
0.6172226775465003 0.12197296688 0.05 -0.3991380362999309
0.6209800302029999 0.121459852469 0.05 -0.3965846229200574
0.62458133592 0.12093669611 0.05 -0.3929408013500252
0.6280312956454999 0.1204034504175 0.05 -0.3882243001560182
0.6313347640235002 0.119861401074 0.05 -0.3821993971252958
0.6344968123680003 0.1193133306225 0.05 -0.375349159583554
0.6375226138519999 0.1187626347535 0.05 -0.3681377249482386
0.6404172906375001 0.11821244768 0.05 -0.3611028644852973
0.6431853636155 0.117663007212 0.05 -0.3546704841355996
0.6458299100325 0.117108143391 0.04999999999999965 -0.3494585061616168
0.6483530014750001 0.116538586868 0.05000000000000036 -0.3409237855238287
0.6507565369045 0.115946749381 0.05000000000000001 -0.330972874612689
0.6530428059585001 0.1153287743385 0.05 -0.3129100066348431
0.6552411065430003 0.114664511668 0.05 -0.3004846674035024
0.657403313374 0.1139489530125 0.05 -0.2678208230047461
0.6595440982245004 0.113172824724 0.05000000000000001 -0.2554978809749076
0.6616543113090004 0.1123169590505 0.05000000000000001 -0.2321047956260008
0.6637315088855003 0.1113839593165 0.05 -0.2187850049634584
0.6657702102740002 0.1103697151375 0.05 -0.2072478079106254
0.667766757488 0.1092746552405 0.05 -0.2002032650759463
0.6697226334865001 0.1081081019005 0.05 -0.1940160711527561
0.6716427213760002 0.106883191143 0.05000000000000001 -0.1898994138433392
0.6735315887085001 0.1056104175955 0.05 -0.1861762430327566
0.6753924238924999 0.1042968060795 0.05 -0.1835850798265006
0.6772280143150003 0.1029479441625 0.05 -0.1812857032896336
0.6790413578645007 0.101569121764 0.05000000000000001 -0.1796457700800823
0.6808352171090004 0.10016484892945 0.05 -0.1781941734260956
0.6826125431065 0.09873950390380001 0.04999999999999962 -0.1770531554359355
0.6843763723494996 0.09729728448955002 0.05000000000000041 -0.1761094056412535
0.6861295665739999 0.09584194181709998 0.04999999999999997 -0.1754302542569048
0.6878752202565003 0.09437734204935001 0.05 -0.1749475929980446
0.6896156221749998 0.09290627960579999 0.05 -0.1746556967385369
0.6913518474884993 0.09143005320875 0.05000000000000003 -0.1744635835225091
0.6930848069234998 0.08994974418729999 0.04999999999999998 -0.1743583121515996
0.6948159685650003 0.08846706926005 0.05000000000000001 -0.1742955341925542
0.6965479688664999 0.08698509898110002 0.05 -0.1742793863297726
0.6982840580074997 0.0855076355043 0.05 -0.1742966936983646
0.7000263361159997 0.0840371715334 0.05000000000000001 -0.1743459576138436
0.7017748511845004 0.08257380343345001 0.05 -0.1744140252287231
0.7035282252639999 0.08111591737334996 0.04999999999999998 -0.1744939843171058
0.7052849101374997 0.07966166549259995 0.05000000000000001 -0.1745770106077994
0.7070436944859998 0.07820958308489996 0.05 -0.1746620060158911
0.7088038634584999 0.07675879497879999 0.05000000000000004 -0.1747330178496556
0.7105663320810001 0.07531040458100001 0.05 -0.1748073547157605
0.7123327171204995 0.07386638023865 0.05 -0.1748853308764868
0.7141040067579998 0.07242794790524999 0.05 -0.1749475840733127
0.7158820780589996 0.0709974682466 0.04999999999999937 -0.1750331317815774
0.7176684679405002 0.06957692581855 0.0499999999999996 -0.1751093972287245
0.7194640268915001 0.06816751375634997 0.05000000000000135 -0.1751973914302491
0.7212698693615002 0.06677080212205 0.05000000000000007 -0.1752941582358829
0.7230860540255001 0.06538703709055001 0.04999999999999966 -0.1753905026318231
0.7249121528170001 0.06401583513665 0.05000000000000001 -0.175488671582027
0.7267477269805005 0.06265677472459999 0.05000000000000001 -0.1755741351796834
0.7285925185100005 0.06130966710524999 0.05000000000000295 -0.1756548595859231
0.7304465161280005 0.05997464959935003 0.04999999999999707 -0.1757262004237202
0.7323093458700004 0.05865135181560001 0.04999999999999995 -0.175781948289516
0.7341809792190002 0.0573398883524 0.05000000000000002 -0.1757991308977152
0.7360624659025 0.05604193706630001 0.05000000000000338 -0.1758449599623305
0.7379542475475001 0.05475833491104998 0.04999999999999667 -0.1758524464243322
0.7398563365580003 0.05348934074064998 0.04999999999999996 -0.1758502560105909
0.7417694324739998 0.05223625912550001 0.05 -0.1758552653845785
0.7436936400309996 0.0509995281529 0.04999999999999999 -0.1758283039409236
0.7456288995499997 0.04977936423650001 0.05000000000000002 -0.1758041047441725
0.74757529892 0.04857621600440001 0.05 -0.1757539787721788
0.7495328370405001 0.04739041614075001 0.05000000000000002 -0.1756919450317358
0.7515016017880003 0.04622245676085 0.05000000000000001 -0.1756245001212744
0.7534814207705001 0.0450724044298 0.04999999999999999 -0.1755220213336615
0.7554723219755002 0.04394069032665002 0.05000000000000002 -0.1754169600169524
0.7574743848685001 0.04282784208069999 0.04999999999999998 -0.1753032368453917
0.7594872815664995 0.04173367423209998 0.05000000000000002 -0.175146443998667
0.7615110766404999 0.04065873497615001 0.04999999999999998 -0.1749949687470649
0.7635459190695 0.03960374280455001 0.05 -0.1748343150880163
0.7655914220255003 0.0385684109312 0.05 -0.1746384799350964
0.7676473243625004 0.03755268941775 0.05 -0.1744396444542717
0.7697135837544997 0.03655696300124998 0.05 -0.1742039036307128
0.7717902952700002 0.03558193783305 0.04999999999999998 -0.1739814643454602
0.7738773988725003 0.03462801223355001 0.05000000000000002 -0.1737421449902127
0.7759744457524999 0.03369474440785002 0.05 -0.1734831060723877
0.7780810664150003 0.03278183889165 0.05 -0.173205425024143
0.78019704305 0.03188932292789999 0.05 -0.1729124233516346
0.7823221505739998 0.03101719849765001 0.04999999999999964 -0.1726077456788657
0.7844560716074997 0.03016522813985002 0.05000000000000039 -0.1722842865822659
0.7865984214700001 0.02933297664485 0.04999999999999998 -0.171943458614175
0.7887488166960002 0.02851996895799999 0.05000000000000002 -0.1715767514225103
0.7909068707960001 0.02772567395929999 0.05000000000000001 -0.1711958348295951
0.7930721921014999 0.02694949718584999 0.05 -0.170768040305631
0.7952445708874996 0.0261913195438 0.05 -0.170333676944203
0.7974239025135 0.02545130583115001 0.05000000000000001 -0.1698750005472464
0.7996099661955 0.02472927879469999 0.05 -0.1694054578609472
0.8018025000324995 0.024024915325 0.05000000000000001 -0.168900774492306
0.8040012958529995 0.02333803380759999 0.05 -0.16839529194406
0.8062060857959994 0.02266822866269998 0.05 -0.1678565550355554
0.8084165625669999 0.02201493253974999 0.05000000000000001 -0.1672918444214429
0.8106324933375002 0.02137777852194999 0.05 -0.1667212212278278
0.8128535181804998 0.0207559029622 0.05 -0.166105529955711
0.8150792454929996 0.0201482675157 0.05000000000000001 -0.1654546148876699
0.8173095056829995 0.0195545852866 0.04999999999999612 -0.1647617143865467
0.8195442795785002 0.0189751162048 0.05000000000000389 -0.1640760901749233
0.8217834321310002 0.01840966975389999 0.05 -0.1633462295590724
0.8240267348000002 0.01785767121659999 0.04999999999999999 -0.1626023148254262
0.826274041879 0.0173188424891 0.05 -0.1618129838212864
0.828525262765 0.0167931131495 0.05000000000000001 -0.1610358358595161
0.8307801805914995 0.01627984063945001 0.05 -0.1602046147550087
0.8330385750609997 0.015778336125 0.05 -0.159335253936742
0.8353003986759997 0.01528864325229999 0.05000000000000001 -0.1584828471189909
0.8375654441710002 0.01481003517775001 0.05 -0.157561391600197
0.8398334852355001 0.0143416651224 0.05 -0.1566153023153397
0.8421044345034995 0.0138832977753 0.05000000000000001 -0.155663760174613
0.8443780829514996 0.0134340585689 0.05 -0.1546346741008181
0.8466543157384999 0.0129935213911 0.0500000000000004 -0.1535946277863091
0.8489331304950001 0.01256180862454999 0.04999999999999961 -0.1525394501687149
0.8512143973715005 0.0121383619413 0.05 -0.1514237934378497
0.8534980640470001 0.01172302708495 0.05000000000000001 -0.1503025099748672
0.8557841323799997 0.0113159304976 0.05 -0.149157628398364
0.8580725027609996 0.01091662627125 0.05 -0.1479735582961438
0.8603631170914997 0.0105248892373 0.05000000000000001 -0.1467717793854907
0.8626559558170003 0.010140705231595 0.05 -0.145544707091979
0.8649509638630006 0.009763841642254993 0.04999999999999961 -0.1442953633502692
0.8672480749810004 0.009393981725744996 0.05000000000000353 -0.1430165975107091
0.8695472360589998 0.009030876001935001 0.04999999999999687 -0.1417142793479183
0.8718484026379998 0.008674312432575002 0.05 -0.1403893186678787
0.8741515097960003 0.008323930074100002 0.05 -0.1390350682695434
0.8764564866705006 0.007979311843514997 0.05 -0.1376531031698585
0.87876329261 0.007640223389389998 0.05 -0.1362395816293493
0.8810719287089996 0.007306705454424998 0.05 -0.1348131626502519
0.8833823747765001 0.006978648181244999 0.05 -0.1333600793657736
0.8856945846790002 0.006655753190235001 0.05 -0.13187769941713
0.888008559028 0.006338047922060002 0.05 -0.1303785321714294
0.8903243296705001 0.006025791010584998 0.04999999999999999 -0.1288587727462016
0.8926419295295001 0.005719262982080003 0.05 -0.1273324408759947
0.894961370319 0.005418595432645 0.05 -0.1257833949005702
0.897282659628 0.005123898809525002 0.05000000000000001 -0.1242249507606601
0.8996058166475005 0.004835381589855001 0.05000000000000001 -0.1226508563304306
0.9019308405080003 0.004553099979725001 0.05000000000000001 -0.1210665434783544
0.9042576994649999 0.004276853159515001 0.05 -0.1194578734815332
0.9065863723679998 0.004006522247784995 0.05000000000000432 -0.1178289162762504
0.9089168821900002 0.003742369358659995 0.0499999999999957 -0.1161904870756165
0.9112492673494997 0.003484812123329997 0.05 -0.1145343668918422
0.9135835831659994 0.003234460843345001 0.05 -0.112882177489461
0.9159198695309997 0.002991829606820002 0.05 -0.1112159566180569
0.9182581570539999 0.002757397545525002 0.05 -0.1095459307046922
0.9205985015379998 0.002531952698750002 0.05 -0.107880121361297
0.9229409218954998 0.002315977488074998 0.05000000000000001 -0.1062089053505306
0.925285397132 0.002109572991655 0.05000000000000002 -0.1045257176319445
0.9276319345350003 0.00191320048961 0.05 -0.1028374577824968
0.9299805638220006 0.001727674900340001 0.04999999999999922 -0.10115976843016
0.9323312699495009 0.001553340179535 0.05000000000000079 -0.09946802794428174
0.9346840168910001 0.001390327937335001 0.05 -0.09777444656038582
0.9370387882550004 0.001239107756285 0.05 -0.09607516312490272
0.9393955675104999 0.001100259410920001 0.05 -0.09438056633894282
0.9417543090615001 0.0009739523717999988 0.05 -0.09268232765336054
0.9441149373385004 0.0008598167828175008 0.05000000000000001 -0.09096208454279044
0.94647739603 0.0007578350968285 0.05000000000000001 -0.08924562806189074
0.9488416360929997 0.0006680967845340002 0.05 -0.0875165257102873
0.9512075896600003 0.0005901756512729997 0.05 -0.08577933745830628
0.9535751911305002 0.0005235204025705001 0.05 -0.08402283240019184
0.9559443884610002 0.0004678319103404997 0.05000000000000001 -0.08226328879954228
0.9583151318512466 0.0004226114038649998 0.05 -0.0804919315383226
0.9606873669264997 0.0003866365378024997 0.05 -0.07869669848330958
0.9630610461966012 0.0003581136067694999 0.05 -0.07688522243922724
0.9654361321523725 0.0003345389461170001 0.05000000000000001 -0.07502389016315821
0.9678126019753014 0.0003134066880180002 0.05000000000000001 -0.07314583179568418
0.9701904441023752 0.0002925642877440003 0.05000000000000001 -0.07122028243889565
0.9725696590825826 0.0002710008838005 0.05 -0.06929919372099999
0.9749502589249133 0.0002489953303805 0.05000000000000001 -0.0673745706347557
0.9773322566083573 0.000226915191782 0.05 -0.06546200033506565
0.979715665643405 0.000205183944112 0.05000000000000001 -0.0635620699749337
0.9821004936320479 0.0001835776465299998 0.05 -0.06166767498060313
0.9844867406282777 0.0001610744221329998 0.05 -0.05977304351277094
0.9868744035860869 0.0001364675391545 0.05 -0.05788331613917409
0.9892634749819691 0.0001084276971785 0.05 -0.05598959147820585
0.991653963663917 7.717415161220012e-05 0.05000000000000426 -0.05411855913718677
0.9940459197679246 4.603636350784988e-05 0.04999999999999576 -0.05229711662581699
0.9964394098194864 2.012308392756483e-05 0.05000000000000001 -0.05052568542735006
0.9988344687740984 4.57269653891493e-06 0.05000000000000001 -0.04881742518108388
1.001231319972254 8.510679390508752e-48 0.05 -0.04711493896028653
1.00363154622195 2.591291436594307e-48 0.05 -0.04535614387217794
1.006038885811681 1.011347810777148e-48 0.05000000000000001 -0.04361665410842011
1.008458096596444 4.646514868936481e-49 0.05 -0.04187268026837741
1.010893959881236 2.395214489048206e-49 0.05 -0.0401441395039682
1.013351289881052 1.261587689267854e-49 0.05000000000000001 -0.03841453630667555
1.015834943250891 5.526228752641974e-50 0.05000000000000001 -0.03669371067868651
1.01834982866575 2.431018476693002e-50 0.05000000000000001 -0.03497122828624488
1.020900916525627 1.938945098016393e-50 0.05 -0.03325144291599422
1.023493248780521 1.583428058119273e-50 0.05000000000000355 -0.03152783581385885
1.02613194889543 1.313789446488723e-50 0.04999999999999653 -0.02980229976785096
1.028822231975351 1.354958470496343e-50 0.05000000000000613 -0.02807048426627945
1.031569415075284 2.342721963060824e-30 0.04999999999999401 -0.02633319055232881
1.034378927710227 2.342721963060854e-30 0.05000000000000001 -0.02458748510029963
1.03725632258018 1.027548367226623e-50 0.05000000000000001 -0.02283384488911832
1.04020728654514 8.461064549543866e-51 0.05 -0.02107033389942679
1.043237651865107 6.981765050243369e-51 0.05 -0.01929764505405343
1.046353407735082 5.767833953231654e-51 0.05 -0.01751453626043456
1.049560712110061 4.766289439025826e-51 0.05 -0.0157223857536827
1.052865903880043 3.936233464398047e-51 0.05 -0.01392032139241479
1.056275515405031 3.245756645340004e-51 0.05 -0.01211083951027217
1.059796285415022 2.669711712542532e-51 0.05 -0.01029296174861218
1.063435172330014 2.188091411400495e-51 0.05 -0.008470697456198223
1.06719936802001 1.784834337819691e-51 0.05000000000000001 -0.006642478546929448
1.071096312010006 1.446937277664283e-51 0.05000000000000001 -0.004814248112941517
1.075133706190003 1.163789285243622e-51 0.05000000000000002 -0.002984161998499763
1.079319530045001 9.287426739635186e-52 0.05 -0.001159576838317653
1.0836620564 7.347538602692663e-52 0.05000000000000002 0.0006586656317687728
1.088169867785 5.725197567857864e-52 0.05 0.00246639358229466
1.092851873409999 1.763585476953191e-33 0.05 0.004258525209875479
1.097717326755 5.371054003528787e-33 0.05000000000000001 0.006027255958922158
1.10277584386 3.607468526575542e-33 0.05 0.007768681835884373
1.108037422345 1.714954063697579e-52 0.05 0.0094688921818506
1.11351246116 1.04897803472247e-52 0.05000000000000001 0.01112771418695271
1.11921178112 5.055081623723267e-53 0.05000000000000001 0.01272275831572299
1.12514664632134 6.657132301044406e-54 0.05 0.0142601223995604
1.13132878638688 -2.83491685989953e-53 0.05 0.01570562993482
1.137770419650539 -5.371869550381302e-53 0.05000000000000001 0.01707501822602625
1.14448427731 -7.304548764548966e-53 0.05 0.01832032771598666
1.151483628575 -8.943490619834589e-53 0.05 0.01946715884954321
1.158782306915 1.598282511132325e-33 0.05000000000000001 0.0204677552433999
1.166394737385 1.598282511132356e-33 0.05 0.02133968482806268
1.174335965135 -1.016870786310609e-52 0.05 0.02204215890555485
1.182621685145001 -9.58170442752457e-53 0.05 0.02259286713500658
1.191268273245006 -1.013065646717515e-52 0.05000000000000001 0.02295634489669629
1.200292818495019 -1.062052045219532e-52 0.05 0.02316700733958704
1.209713156935055 -1.088285129362897e-52 0.05 0.02318847153228447
1.219547906845141 -1.099357374960012e-52 0.05 0.0230948329119262
1.229816505550341 -1.096187333770674e-52 0.05 0.02282172983213952
1.240539247835785 -1.058200105718167e-52 0.05000000000000084 0.02248604507143341
1.25173732605173 -9.889210349496028e-53 0.04999999999999919 0.02198418947628935
1.263432871988672 -9.174977361209981e-53 0.05 0.02146697884475081
1.275649000642545 2.807774441075409e-28 0.05 0.02083556546000851
1.288409855875064 2.807774441075425e-28 0.05 0.02018054517158581
1.301740658120006 -5.208630476078039e-53 0.05000000000000001 0.01942110994242784
1.31566775429 -4.921014871284884e-53 0.05 0.01868704137941275
1.33021866981 -4.629494235224456e-53 0.05 0.01793648311807347
1.345422162985 -4.300327408347508e-53 0.05 0.01710389329701489
1.36130828188 -3.907318364728121e-53 0.05000000000000001 0.01622931034051445
1.377908423704999 -2.723217497356382e-53 0.05 0.0154244192287035
1.39525539685 -2.49709839753994e-53 0.05000000000000001 0.01472654487735538
1.413383485745 7.666457719339984e-35 0.05 0.01375055591301596
1.43232851861 7.666457719340016e-35 0.05 0.01305312868385451
1.452127938255 -2.697627335435676e-53 0.05000000000000002 0.01236987022692953
1.47282087611 -2.455723518285842e-53 0.05 0.01138640080670946
1.494448229535 -2.259909188633439e-53 0.05 0.01048028536512072
1.51705274267 -2.157173215954869e-53 0.05000000000000001 0.009715591110908108
1.54067909091 -2.00880532607384e-53 0.05 0.008928710622138221
1.565373969180001 -1.812720640206418e-53 0.05000000000000001 0.008256682374660502
1.591186184255001 -1.63443328665915e-53 0.05 0.00763005456637695
1.618166751205004 -1.472536459125953e-53 0.05 0.007103327168854791
1.646368994210009 -1.325689271535482e-53 0.05 0.006605353198790579
1.675848651970026 -1.19262510945125e-53 0.05 0.006185038482050103
1.706663987855066 -5.646926531655306e-54 0.05000000000000001 0.005609811369994825
1.738875905065168 2.246769414474591e-30 0.05 0.005086348553701414
1.772548066995156 2.246769414474591e-30 0.05 0.004886861544431976
1.80774702304505 -5.731113957830518e-54 0.05000000000000001 0.004690793687169115
1.844542340160022 -6.971535175750583e-54 0.05000000000000001 0.004531463106032836
1.883006740330007 -6.245943636725074e-54 0.05000000000000001 0.004426326217672596
1.923216244305002 -6.576445299008552e-54 0.05000000000000001 0.004324571273650319
1.96525032184 -6.883673856098615e-54 0.05 0.004257501870846558
2.009192048765 -6.173502721777997e-54 0.05 0.004189096817989688
2.05512827118 -5.519980891723314e-54 0.05000000000000001 0.004121606089580438
2.10314977709 -4.927637970197069e-54 0.05 0.004042442449980708
2.153351475825 -4.391823971969363e-54 0.05 0.003934602002837888
2.205832585645 -3.908094692748231e-54 0.05 0.003805112441411628
2.260696829831146 -3.472225937847503e-54 0.05 0.003623742610912806
2.318052641641292 -3.07793454456263e-54 0.05 0.003411536957457053
2.378013378665147 -1.445063158930439e-54 0.05 0.003139853723201652
2.440697546860001 -1.128297056950365e-54 0.05 0.002821354315911331
2.506229034735143 -2.123907977825008e-54 0.05000000000000001 0.002436542461207739
2.574737358242559 -1.870339690068395e-54 0.05 0.002022278754159972
2.646357916682414 -1.644561568646055e-54 0.05 0.001529362463375803
2.721232260385 -1.446382883514448e-54 0.05 0.001048310962743659
2.799508370464999 -1.270285530068063e-54 0.05000000000000001 0.0004693785841961708
2.881340951215 -1.114072383071297e-54 0.05000000000000001 9.488006605876672e-07
2.966891735925 -9.757278906711679e-55 0.05000000000000001 -0.0006177519825143292
3.05632980651517 -8.534081663472966e-55 0.05000000000000001 -0.0009321957100934173
3.14983192771517 7.609647053910184e-38 0.05000000000000001 -0.001535884355425616
3.247582896405071 1.046937402282063e-29 0.05 -0.001400985819312686
3.349775906860071 1.046937394672414e-29 0.05000000000000001 -0.001924136091996726
3.456612932570001 -4.929413859921234e-55 0.05 -0.0008314281842748367
3.568305125420001 -4.283887999878376e-55 0.05000000000000001 -0.001669752531432088
3.685073233015002 -3.718394922146277e-55 0.05000000000000001 0.000942231092043951
3.807148034958993 -3.223728926536697e-55 0.05000000000000001 -0.001853120874621883
3.934770798953994 -4.145619397450608e-55 0.05000000000000001 0.004242999675556245
